Lmod has detected the following error: The following module(s) are unknown:
"epcc-job-env"

Please check the spelling or version number. Also try "module spider ..."
It is also possible your cache file is out-of-date; it may help to try:
  $ module --ignore-cache load "epcc-job-env"

Also make sure that all modulefiles written in TCL start with the string
#%Module




Warning: You have enabled access to software packages installed
by external parties on ARCHER2 or those that are not fully-supported.
The ARCHER2 CSE service does not test these packages. The service desk
will make reasonable efforts to assist with questions on the use of
these packages but some issues may not be able to be resolved by the
service and they may direct you to seek help from external parties.


         512 PROCESSORS WORKING

         
 *******************************************************************************
 *                                                                             *
 *                               CRYSTAL17                                     *
 *                      public : 1.0.2 - March 1st, 2018 STFC/Archer2 build    *
 *                       HTTP://WWW.CRYSTAL.UNITO.IT                           *
 *                                                                             *
 *                              MAIN AUTHORS                                   *
 *                                                                             *
 *  R. DOVESI(1,11), V.R. SAUNDERS(2), C. ROETTI(1,11), R. ORLANDO(1,11),      *
 *  C.M. ZICOVICH-WILSON(1,3), F. PASCALE(4), B. CIVALLERI(1,11),              *
 *  K. DOLL(5), N.M. HARRISON(2,6), I.J. BUSH(7), Ph. D'ARCO(8),               *
 *  M. LLUNELL(9), M. CAUSA'(10), Y. NOEL(8), L. MASCHIO(1,11), A. ERBA(1,11)  *
 *  M. RE'RAT(14), S. CASASSA(1,11)                                            *
 *                                                                             *
 *        CONTRIBUTIONS TO THE CODE HAVE ALSO BEEN GIVEN BY                    *
 *                                                                             *
 *  M. FERRABONE(1,11), M. DE LA PIERRE(1,11), M. FERRERO(1,11),               *
 *  J. BAIMA(1,11), E. ALBANESE(1,11), M.F. PEINTINGER(12), R. BAST(13),       *
 *  B. KIRTMAN(15), V. LACIVITA(1,11), R. DEMICHELIS(1,16)                     *
 *  G. BRANDEBURG(17), S. SALUSTRO(1,11), G. SANSONE(1,11)                     *
 *  M.T. RUGGIERO(18)                                                          *
 *                                                                             *
 * (1) THEORETICAL CHEMISTRY GROUP - UNIVERSITA' DI TORINO - TORINO (ITALY)    *
 * (2) COMPUTATIONAL SCIENCE & ENGINEERING DEPARTMENT - STFC DARESBURY (UK)    *
 * (3) UNIVERSIDAD AUTONOMA DEL ESTADO DE MORELOS - CUERNAVACA (MEXICO)        *
 * (4) UNIVERSITE' DE LORRAINE - NANCY (FRANCE)                                *
 * (5) UNIVERSITAET STUTTGART- STUTTGART (GERMANY)                             *
 * (6) IMPERIAL COLLEGE - LONDON (UK)                                          *
 * (7) OXFORD E-RESEARCH CENTRE - OXFORD (UK)                                  *
 * (8) UPMC - SORBONNE UNIVERSITES - PARIS (FRANCE)                            *
 * (9) UNIVERSIDAD DE BARCELONA - BARCELONA (SPAIN)                            *
 *(10) UNIVERSITA' DI NAPOLI "FEDERICO II" - NAPOLI (ITALY)                    *
 *(11) NIS - NANOSTRUCTURED INTERFACES AND SURFACES - TORINO (ITALY)           *
 *(12) MPI FUER CHEMISCHE ENERGIEKONVERSION - MUELHEIM AN DER RUHR (GERMANY)   *
 *(13) UNIVERSITY OF TROMSO - TROMSO (NORWAY)                                  *
 *(14) UNIVERSITE' DE PAU ET DES PAYS DE L'ADOUR - PAU (FRANCE)                *
 *(15) UNIVERSITY OF CALIFORNIA SANTA BARBARA - SANTA BARBARA (USA)            *
 *(16) CURTIN UNIVERSITY - PERTH (AUSTRALIA)                                   *
 *(17) UNIVERSITY COLLEGE LONDON - LONDON (UK)                                 *
 *(18) CAMBRIDGE UNIVERSITY - CAMBRIDGE (UK)                                   *
 *                                                                             *
 *******************************************************************************
 EEEEEEEEEE STARTING  DATE 04 03 2022 TIME 23:36:25.6
 F1 vol step-2 freq - PBEh-3c                                                    

 GEOMETRY INPUT FROM EXTERNAL FILE (FORTRAN UNIT 34)
 3D - CRYSTAL 

 *******************************************************************************
 LATTICE PARAMETERS  (ANGSTROMS AND DEGREES) - PRIMITIVE CELL
       A          B          C        ALPHA      BETA     GAMMA        VOLUME
    7.14454    9.22622   12.64043    90.00000 116.24579  90.00000    747.320252

 NUMBER OF IRREDUCIBLE ATOMS IN THE CELL:   20

 CARTESIAN COORDINATES (ANGSTROM) - IRREDUCIBLE ATOMS AND SYMMETRY RELATED

 AT.IRR.  AT  AT.N.          X                   Y                   Z
     1     1     8    2.783020889421E+00 -6.290547919080E-01  2.421138692893E+00
     1     2     8    1.560719112683E+00  3.984054302606E+00  3.251987889002E+00
     1     3     8   -2.783020889421E+00  6.290547919080E-01 -2.421138692893E+00
     1     4     8   -1.560719112683E+00 -3.984054302606E+00 -3.251987889002E+00
     5     5     8    7.812963849280E-01  4.578175631581E+00 -2.236300830479E+00
     5     6     8    2.019503197752E+00 -3.493346293300E-02 -3.429444358397E+00
     5     7     8   -7.812963849280E-01 -4.578175631581E+00  2.236300830479E+00
     5     8     8   -2.019503197752E+00  3.493346293300E-02  3.429444358397E+00
     9     9     7    2.961335021211E+00 -4.218440286125E+00 -1.815064636625E+00
     9    10     7   -1.605354385320E-01  3.946688083890E-01 -3.850680552251E+00
     9    11     7   -2.961335021211E+00  4.218440286125E+00  1.815064636625E+00
     9    12     7    1.605354385320E-01 -3.946688083890E-01  3.850680552251E+00
    13    13     6    2.866669194260E+00 -3.341979819906E+00 -7.199164693740E-01
    13    14     6   -6.586961158000E-02  1.271129274608E+00 -4.945828719501E+00
    13    15     6   -2.866669194260E+00  3.341979819906E+00  7.199164693740E-01
    13    16     6    6.586961158000E-02 -1.271129274608E+00  4.945828719501E+00
    17    17     6    1.795937696838E+00 -3.303051529566E+00  1.664031365920E-01
    17    18     6    1.004861885842E+00  1.310057564949E+00 -5.832148325467E+00
    17    19     6   -1.795937696838E+00  3.303051529566E+00 -1.664031365920E-01
    17    20     6   -1.004861885842E+00 -1.310057564949E+00  5.832148325467E+00
    21    21     6    1.788597066481E+00 -2.394042738579E+00  1.213916356216E+00
    21    22     6    2.555142935622E+00  2.219066355936E+00  4.459210225679E+00
    21    23     6   -1.788597066481E+00  2.394042738579E+00 -1.213916356216E+00
    21    24     6   -2.555142935622E+00 -2.219066355936E+00 -4.459210225679E+00
    25    25     6    2.850677997252E+00 -1.516513232276E+00  1.408606471126E+00
    25    26     6    1.493062004852E+00  3.096595862239E+00  4.264520110769E+00
    25    27     6   -2.850677997252E+00  1.516513232276E+00 -1.408606471126E+00
    25    28     6   -1.493062004852E+00 -3.096595862239E+00 -4.264520110769E+00
    29    29     6   -3.207682500431E+00 -1.579708661305E+00  5.332878374140E-01
    29    30     6    4.068829177510E-01  3.033400433210E+00  5.132457351461E+00
    29    31     6    3.207682500431E+00  1.579708661305E+00 -5.332878374140E-01
    29    32     6   -4.068829177510E-01 -3.033400433210E+00 -5.132457351461E+00
    33    33     6   -3.206800162668E+00 -2.478747212498E+00 -5.163712558790E-01
    33    34     6   -1.136939839435E+00  2.134361882017E+00 -5.156755326016E+00
    33    35     6    3.206800162668E+00  2.478747212498E+00  5.163712558790E-01
    33    36     6    1.136939839435E+00 -2.134361882017E+00  5.156755326016E+00
    37    37     6    1.973186060956E+00  4.444582478592E+00 -2.521044768673E+00
    37    38     6    8.276135217230E-01 -1.685266159220E-01 -3.144700420202E+00
    37    39     6   -1.973186060956E+00 -4.444582478592E+00  2.521044768673E+00
    37    40     6   -8.276135217230E-01  1.685266159220E-01  3.144700420202E+00
    41    41     6    2.414355403504E+00  3.620112398680E+00 -3.696627764720E+00
    41    42     6    3.864441791760E-01 -9.929966958340E-01 -1.969117424156E+00
    41    43     6   -2.414355403504E+00 -3.620112398680E+00  3.696627764720E+00
    41    44     6   -3.864441791760E-01  9.929966958340E-01  1.969117424156E+00
    45    45     1    9.590863198770E-01 -3.972972647892E+00  5.961026888300E-02
    45    46     1    1.841713262802E+00  6.401364466220E-01 -5.725355457758E+00
    45    47     1   -9.590863198770E-01  3.972972647892E+00 -5.961026888300E-02
    45    48     1   -1.841713262802E+00 -6.401364466220E-01  5.725355457758E+00
    49    49     1    9.415886646950E-01 -2.380686556983E+00  1.888194580422E+00
    49    50     1    3.402151337408E+00  2.232422537531E+00  3.784932001473E+00
    49    51     1   -9.415886646950E-01  2.380686556983E+00 -1.888194580422E+00
    49    52     1   -3.402151337408E+00 -2.232422537531E+00 -3.784932001473E+00
    53    53     1   -2.365383759650E+00 -9.125082268640E-01  6.575631143750E-01
    53    54     1   -4.354158230300E-01  3.700600867650E+00  5.008182074500E+00
    53    55     1    2.365383759650E+00  9.125082268640E-01 -6.575631143750E-01
    53    56     1    4.354158230300E-01 -3.700600867650E+00 -5.008182074500E+00
    57    57     1   -2.352756049977E+00 -2.509684098009E+00 -1.180711977075E+00
    57    58     1   -1.990983952126E+00  2.103424996505E+00 -4.492414604820E+00
    57    59     1    2.352756049977E+00  2.509684098009E+00  1.180711977075E+00
    57    60     1    1.990983952126E+00 -2.103424996505E+00  4.492414604820E+00
    61    61     1   -3.479661262811E+00 -2.637407765290E-01  2.655254666789E+00
    61    62     1    6.788616801320E-01  4.349368317986E+00  3.010490522087E+00
    61    63     1    3.479661262811E+00  2.637407765290E-01 -2.655254666789E+00
    61    64     1   -6.788616801320E-01 -4.349368317986E+00 -3.010490522087E+00
    65    65     1   -3.243593848336E+00 -4.353390794627E+00 -2.178217665857E+00
    65    66     1   -1.100146153768E+00  2.597182998870E-01 -3.494908916038E+00
    65    67     1    3.243593848336E+00  4.353390794627E+00  2.178217665857E+00
    65    68     1    1.100146153768E+00 -2.597182998870E-01  3.494908916038E+00
    69    69     1    1.781328968649E+00  3.823839441520E+00 -4.558715291487E+00
    69    70     1    1.019470614030E+00 -7.892696529940E-01 -1.107029897388E+00
    69    71     1   -1.781328968649E+00 -3.823839441520E+00  4.558715291487E+00
    69    72     1   -1.019470614030E+00  7.892696529940E-01  1.107029897388E+00
    73    73     1    3.453773493281E+00  3.786128213960E+00 -3.971606292838E+00
    73    74     1   -6.529739106020E-01 -8.269808805540E-01 -1.694138896037E+00
    73    75     1   -3.453773493281E+00 -3.786128213960E+00  3.971606292838E+00
    73    76     1    6.529739106020E-01  8.269808805540E-01  1.694138896037E+00
    77    77     1    2.288676064686E+00  2.562173954276E+00 -3.470824502223E+00
    77    78     1    5.121235179940E-01 -2.050935140239E+00 -2.194920686652E+00
    77    79     1   -2.288676064686E+00 -2.562173954276E+00  3.470824502223E+00
    77    80     1   -5.121235179940E-01  2.050935140239E+00  2.194920686652E+00

 SPACE  GROUP  N.                     :   14
 NUMBER OF SYMMETRY OPERATORS         :    4
 *******************************************************************************
 LATTICE PARAMETERS (ANGSTROMS AND DEGREES) - BOHR = 0.5291772083 ANGSTROM
 PRIMITIVE CELL - CENTRING CODE 1/0 VOLUME=   747.320252 - DENSITY  1.343 g/cm^3
         A              B              C           ALPHA      BETA       GAMMA 
     7.14454340     9.22621819    12.64043462    90.000000 116.245794  90.000000
 *******************************************************************************
 ATOMS IN THE ASYMMETRIC UNIT   20 - ATOMS IN THE UNIT CELL:   80
     ATOM                 X/A                 Y/B                 Z/C    
 *******************************************************************************
      1 T   8 O    -4.432317360384E-01 -6.818121780991E-02  2.133019476636E-01
      2 F   8 O     4.432317360372E-01  4.318187821900E-01  2.866980523342E-01
      3 F   8 O     4.432317360384E-01  6.818121780991E-02 -2.133019476636E-01
      4 F   8 O    -4.432317360372E-01 -4.318187821900E-01 -2.866980523342E-01
      5 T   8 O    -4.535339773048E-02  4.962136747454E-01 -1.973232103348E-01
      6 F   8 O     4.535339773214E-02 -3.786325254538E-03 -3.026767896631E-01
      7 F   8 O     4.535339773048E-02 -4.962136747454E-01  1.973232103348E-01
      8 F   8 O    -4.535339773214E-02  3.786325254538E-03  3.026767896631E-01
      9 T   7 N     2.887553311809E-01 -4.572231221608E-01 -1.603669060842E-01
     10 F   7 N    -2.887553311794E-01  4.277687783910E-02 -3.396330939137E-01
     11 F   7 N    -2.887553311809E-01  4.572231221608E-01  1.603669060842E-01
     12 F   7 N     2.887553311794E-01 -4.277687783910E-02  3.396330939137E-01
     13 T   6 C     3.512479154640E-01 -3.622264021330E-01 -6.376117740883E-02
     14 F   6 C    -3.512479154623E-01  1.377735978669E-01 -4.362388225890E-01
     15 F   6 C    -3.512479154640E-01  3.622264021330E-01  6.376117740883E-02
     16 F   6 C     3.512479154623E-01 -1.377735978669E-01  4.362388225890E-01
     17 T   6 C     2.627515041936E-01 -3.580070904342E-01  1.451385995925E-02
     18 F   6 C    -2.627515041919E-01  1.419929095658E-01  4.854861400430E-01
     19 F   6 C    -2.627515041936E-01  3.580070904342E-01 -1.451385995925E-02
     20 F   6 C     2.627515041919E-01 -1.419929095658E-01 -4.854861400430E-01
     21 T   6 C     3.341662619427E-01 -2.594825625765E-01  1.069100094791E-01
     22 F   6 C    -3.341662619440E-01  2.405174374235E-01  3.930899905187E-01
     23 F   6 C    -3.341662619427E-01  2.594825625765E-01 -1.069100094791E-01
     24 F   6 C     3.341662619440E-01 -2.405174374235E-01 -3.930899905187E-01
     25 T   6 C     4.962106560736E-01 -1.643699727456E-01  1.239857863715E-01
     26 F   6 C    -4.962106560747E-01  3.356300272544E-01  3.760142136263E-01
     27 F   6 C    -4.962106560736E-01  1.643699727456E-01 -1.239857863715E-01
     28 F   6 C     4.962106560747E-01 -3.356300272544E-01 -3.760142136263E-01
     29 T   6 C    -4.118606347726E-01 -1.712195212534E-01  4.733075039091E-02
     30 F   6 C     4.118606347709E-01  3.287804787466E-01  4.526692496069E-01
     31 F   6 C     4.118606347726E-01  1.712195212534E-01 -4.733075039091E-02
     32 F   6 C    -4.118606347709E-01 -3.287804787466E-01 -4.526692496069E-01
     33 T   6 C    -4.843272788750E-01 -2.686634070117E-01 -4.525408651347E-02
     34 F   6 C     4.843272788763E-01  2.313365929883E-01 -4.547459134844E-01
     35 F   6 C     4.843272788750E-01  2.686634070117E-01  4.525408651347E-02
     36 F   6 C    -4.843272788763E-01 -2.313365929883E-01  4.547459134844E-01
     37 T   6 C     1.016949914011E-01  4.817339442369E-01 -2.225475498186E-01
     38 F   6 C    -1.016949913995E-01 -1.826605576295E-02 -2.774524501792E-01
     39 F   6 C    -1.016949914011E-01 -4.817339442369E-01  2.225475498186E-01
     40 F   6 C     1.016949913995E-01  1.826605576295E-02  2.774524501792E-01
     41 T   6 C     8.211417867666E-02  3.923722943149E-01 -3.262795765144E-01
     42 F   6 C    -8.211417867500E-02 -1.076277056849E-01 -1.737204234835E-01
     43 F   6 C    -8.211417867666E-02 -3.923722943149E-01  3.262795765144E-01
     44 F   6 C     8.211417867500E-02  1.076277056849E-01  1.737204234835E-01
     45 T   1 H     1.382943397796E-01 -4.306176774159E-01  5.170499383159E-03
     46 F   1 H    -1.382943397780E-01  6.938232258404E-02  4.948295006190E-01
     47 F   1 H    -1.382943397796E-01  4.306176774159E-01 -5.170499383159E-03
     48 F   1 H     1.382943397780E-01 -6.938232258404E-02 -4.948295006190E-01
     49 T   1 H     2.623038191523E-01 -2.580349291776E-01  1.664616347853E-01
     50 F   1 H    -2.623038191536E-01  2.419650708223E-01  3.335383652125E-01
     51 F   1 H    -2.623038191523E-01  2.580349291776E-01 -1.664616347853E-01
     52 F   1 H     2.623038191536E-01 -2.419650708223E-01 -3.335383652125E-01
     53 T   1 H    -2.854323971396E-01 -9.890382041354E-02  5.821564340479E-02
     54 F   1 H     2.854323971379E-01  4.010961795863E-01  4.417843565930E-01
     55 F   1 H     2.854323971396E-01  9.890382041354E-02 -5.821564340479E-02
     56 F   1 H    -2.854323971379E-01 -4.010961795863E-01 -4.417843565930E-01
     57 T   1 H    -4.107933346174E-01 -2.720165561436E-01 -1.039298195346E-01
     58 F   1 H     4.107933346187E-01  2.279834438563E-01 -3.960701804633E-01
     59 F   1 H     4.107933346174E-01  2.720165561436E-01  1.039298195346E-01
     60 F   1 H    -4.107933346187E-01 -2.279834438563E-01  3.960701804633E-01
     61 T   1 H    -3.031628174816E-01 -2.858601120474E-02  2.345227628574E-01
     62 F   1 H     3.031628174801E-01  4.714139887953E-01  2.654772371405E-01
     63 F   1 H     3.031628174816E-01  2.858601120474E-02 -2.345227628574E-01
     64 F   1 H    -3.031628174801E-01 -4.714139887953E-01 -2.654772371405E-01
     65 T   1 H     3.955990262376E-01 -4.718499720506E-01 -1.918332251322E-01
     66 F   1 H    -3.955990262365E-01  2.815002794924E-02 -3.081667748656E-01
     67 F   1 H    -3.955990262376E-01  4.718499720506E-01  1.918332251322E-01
     68 F   1 H     3.955990262365E-01 -2.815002794924E-02  3.081667748656E-01
     69 T   1 H    -6.606182965540E-02  4.144536106968E-01 -4.022619718311E-01
     70 F   1 H     6.606182965699E-02 -8.554638930309E-02 -9.773802816672E-02
     71 F   1 H     6.606182965540E-02 -4.144536106968E-01  4.022619718311E-01
     72 F   1 H    -6.606182965699E-02  8.554638930309E-02  9.773802816672E-02
     73 T   1 H     2.085078016466E-01  4.103662125032E-01 -3.506286674040E-01
     74 F   1 H    -2.085078016450E-01 -8.963378749673E-02 -1.493713325938E-01
     75 F   1 H    -2.085078016466E-01 -4.103662125032E-01  3.506286674040E-01
     76 F   1 H     2.085078016450E-01  8.963378749673E-02  1.493713325938E-01
     77 T   1 H     8.014781347955E-02  2.777057621857E-01 -3.063512379214E-01
     78 F   1 H    -8.014781347782E-02 -2.222942378143E-01 -1.936487620764E-01
     79 F   1 H    -8.014781347955E-02 -2.777057621857E-01  3.063512379214E-01
     80 F   1 H     8.014781347782E-02  2.222942378143E-01  1.936487620764E-01

 T = ATOM BELONGING TO THE ASYMMETRIC UNIT
 *******************************************************************************
 * GEOMETRY EDITING - INPUT COORDINATES ARE GIVEN IN ANGSTROM         
 *******************************************************************************

 GEOMETRY NOW FULLY CONSISTENT WITH THE GROUP

 FRQFRQFRQFRQFRQFRQFRQFRQFRQFRQFRQFRQFRQFRQFRQFRQFRQFRQFRQFRQFRQFRQFRQFRQFRQFRQ

                       FREQUENCY CALCULATION

 INFORMATION **** INPFREQ ****  PRINTING OF EIGENVECTORS
 INFORMATION **** INPFREQ **** NEW DEFAULT - IMPOSING ECKART CONDITIONS TO THE HESSIAN

 GCALCO - MAX INDICES DIRECT LATTICE VECTOR    20    14    11
 NO.OF VECTORS CREATED 6999 STARS 1868 RMAX   203.40259 BOHR

 GEOMETRY FOR WAVE FUNCTION - DIMENSIONALITY OF THE SYSTEM    3
 (NON PERIODIC DIRECTION: LATTICE PARAMETER FORMALLY SET TO 500)
 *******************************************************************************
 LATTICE PARAMETERS (ANGSTROMS AND DEGREES) - BOHR = 0.5291772083 ANGSTROM
 PRIMITIVE CELL - CENTRING CODE 1/0 VOLUME=   747.320252 - DENSITY  1.343 g/cm^3
         A              B              C           ALPHA      BETA       GAMMA 
     7.14454340     9.22621819    12.64043462    90.000000 116.245794  90.000000
 *******************************************************************************
 ATOMS IN THE ASYMMETRIC UNIT   20 - ATOMS IN THE UNIT CELL:   80
     ATOM                 X/A                 Y/B                 Z/C    
 *******************************************************************************
      1 T   8 O    -4.432317360384E-01 -6.818121780991E-02  2.133019476636E-01
      2 F   8 O     4.432317360370E-01  4.318187821895E-01  2.866980523347E-01
      3 F   8 O     4.432317360384E-01  6.818121780991E-02 -2.133019476636E-01
      4 F   8 O    -4.432317360398E-01 -4.318187821906E-01 -2.866980523382E-01
      5 T   8 O    -4.535339773048E-02  4.962136747454E-01 -1.973232103348E-01
      6 F   8 O     4.535339772909E-02 -3.786325255188E-03 -3.026767896669E-01
      7 F   8 O     4.535339773048E-02 -4.962136747454E-01  1.973232103348E-01
      8 F   8 O    -4.535339773186E-02  3.786325254104E-03  3.026767896634E-01
      9 T   7 N     2.887553311809E-01 -4.572231221608E-01 -1.603669060842E-01
     10 F   7 N    -2.887553311823E-01  4.277687783866E-02 -3.396330939175E-01
     11 F   7 N    -2.887553311809E-01  4.572231221608E-01  1.603669060842E-01
     12 F   7 N     2.887553311795E-01 -4.277687783975E-02  3.396330939140E-01
     13 T   6 C     3.512479154640E-01 -3.622264021330E-01 -6.376117740883E-02
     14 F   6 C    -3.512479154654E-01  1.377735978665E-01 -4.362388225929E-01
     15 F   6 C    -3.512479154640E-01  3.622264021330E-01  6.376117740883E-02
     16 F   6 C     3.512479154627E-01 -1.377735978676E-01  4.362388225894E-01
     17 T   6 C     2.627515041936E-01 -3.580070904342E-01  1.451385995925E-02
     18 F   6 C    -2.627515041950E-01  1.419929095652E-01  4.854861400390E-01
     19 F   6 C    -2.627515041936E-01  3.580070904342E-01 -1.451385995925E-02
     20 F   6 C     2.627515041923E-01 -1.419929095663E-01 -4.854861400425E-01
     21 T   6 C     3.341662619427E-01 -2.594825625765E-01  1.069100094791E-01
     22 F   6 C    -3.341662619441E-01  2.405174374230E-01  3.930899905192E-01
     23 F   6 C    -3.341662619427E-01  2.594825625765E-01 -1.069100094791E-01
     24 F   6 C     3.341662619413E-01 -2.405174374241E-01 -3.930899905227E-01
     25 T   6 C     4.962106560736E-01 -1.643699727456E-01  1.239857863715E-01
     26 F   6 C    -4.962106560750E-01  3.356300272538E-01  3.760142136267E-01
     27 F   6 C    -4.962106560736E-01  1.643699727456E-01 -1.239857863715E-01
     28 F   6 C     4.962106560722E-01 -3.356300272549E-01 -3.760142136302E-01
     29 T   6 C    -4.118606347726E-01 -1.712195212534E-01  4.733075039091E-02
     30 F   6 C     4.118606347712E-01  3.287804787461E-01  4.526692496073E-01
     31 F   6 C     4.118606347726E-01  1.712195212534E-01 -4.733075039091E-02
     32 F   6 C    -4.118606347740E-01 -3.287804787472E-01 -4.526692496109E-01
     33 T   6 C    -4.843272788750E-01 -2.686634070117E-01 -4.525408651347E-02
     34 F   6 C     4.843272788736E-01  2.313365929878E-01 -4.547459134883E-01
     35 F   6 C     4.843272788750E-01  2.686634070117E-01  4.525408651347E-02
     36 F   6 C    -4.843272788763E-01 -2.313365929889E-01  4.547459134848E-01
     37 T   6 C     1.016949914011E-01  4.817339442369E-01 -2.225475498186E-01
     38 F   6 C    -1.016949914025E-01 -1.826605576360E-02 -2.774524501831E-01
     39 F   6 C    -1.016949914011E-01 -4.817339442369E-01  2.225475498186E-01
     40 F   6 C     1.016949913997E-01  1.826605576252E-02  2.774524501796E-01
     41 T   6 C     8.211417867666E-02  3.923722943149E-01 -3.262795765144E-01
     42 F   6 C    -8.211417867804E-02 -1.076277056856E-01 -1.737204234874E-01
     43 F   6 C    -8.211417867666E-02 -3.923722943149E-01  3.262795765144E-01
     44 F   6 C     8.211417867527E-02  1.076277056845E-01  1.737204234839E-01
     45 T   1 H     1.382943397796E-01 -4.306176774159E-01  5.170499383159E-03
     46 F   1 H    -1.382943397810E-01  6.938232258360E-02  4.948295006151E-01
     47 F   1 H    -1.382943397796E-01  4.306176774159E-01 -5.170499383159E-03
     48 F   1 H     1.382943397782E-01 -6.938232258469E-02 -4.948295006186E-01
     49 T   1 H     2.623038191523E-01 -2.580349291776E-01  1.664616347853E-01
     50 F   1 H    -2.623038191537E-01  2.419650708219E-01  3.335383652130E-01
     51 F   1 H    -2.623038191523E-01  2.580349291776E-01 -1.664616347853E-01
     52 F   1 H     2.623038191509E-01 -2.419650708230E-01 -3.335383652165E-01
     53 T   1 H    -2.854323971396E-01 -9.890382041354E-02  5.821564340479E-02
     54 F   1 H     2.854323971383E-01  4.010961795859E-01  4.417843565934E-01
     55 F   1 H     2.854323971396E-01  9.890382041354E-02 -5.821564340479E-02
     56 F   1 H    -2.854323971410E-01 -4.010961795870E-01 -4.417843565970E-01
     57 T   1 H    -4.107933346174E-01 -2.720165561436E-01 -1.039298195346E-01
     58 F   1 H     4.107933346160E-01  2.279834438559E-01 -3.960701804672E-01
     59 F   1 H     4.107933346174E-01  2.720165561436E-01  1.039298195346E-01
     60 F   1 H    -4.107933346188E-01 -2.279834438570E-01  3.960701804637E-01
     61 T   1 H    -3.031628174816E-01 -2.858601120474E-02  2.345227628574E-01
     62 F   1 H     3.031628174803E-01  4.714139887947E-01  2.654772371408E-01
     63 F   1 H     3.031628174816E-01  2.858601120474E-02 -2.345227628574E-01
     64 F   1 H    -3.031628174830E-01 -4.714139887958E-01 -2.654772371444E-01
     65 T   1 H     3.955990262376E-01 -4.718499720506E-01 -1.918332251322E-01
     66 F   1 H    -3.955990262390E-01  2.815002794881E-02 -3.081667748695E-01
     67 F   1 H    -3.955990262376E-01  4.718499720506E-01  1.918332251322E-01
     68 F   1 H     3.955990262362E-01 -2.815002794989E-02  3.081667748660E-01
     69 T   1 H    -6.606182965540E-02  4.144536106968E-01 -4.022619718311E-01
     70 F   1 H     6.606182965402E-02 -8.554638930374E-02 -9.773802817069E-02
     71 F   1 H     6.606182965540E-02 -4.144536106968E-01  4.022619718311E-01
     72 F   1 H    -6.606182965679E-02  8.554638930266E-02  9.773802816716E-02
     73 T   1 H     2.085078016466E-01  4.103662125032E-01 -3.506286674040E-01
     74 F   1 H    -2.085078016479E-01 -8.963378749738E-02 -1.493713325977E-01
     75 F   1 H    -2.085078016466E-01 -4.103662125032E-01  3.506286674040E-01
     76 F   1 H     2.085078016452E-01  8.963378749630E-02  1.493713325942E-01
     77 T   1 H     8.014781347955E-02  2.777057621857E-01 -3.063512379214E-01
     78 F   1 H    -8.014781348094E-02 -2.222942378149E-01 -1.936487620803E-01
     79 F   1 H    -8.014781347955E-02 -2.777057621857E-01  3.063512379214E-01
     80 F   1 H     8.014781347817E-02  2.222942378138E-01  1.936487620768E-01

 T = ATOM BELONGING TO THE ASYMMETRIC UNIT

 ****    4 SYMMOPS - TRANSLATORS IN FRACTIONAL UNITS
 **** MATRICES AND TRANSLATORS IN THE CRYSTALLOGRAPHIC REFERENCE FRAME
   V INV                    ROTATION MATRICES                   TRANSLATORS
   1   1  1.00  0.00  0.00  0.00  1.00  0.00  0.00  0.00  1.00  0.00  0.00  0.00
   2   2 -1.00 -0.00 -0.00 -0.00  1.00 -0.00  0.00 -0.00 -1.00 -0.00  0.50  0.50
   3   3 -1.00 -0.00 -0.00 -0.00 -1.00  0.00  0.00  0.00 -1.00  0.00  0.00  0.00
   4   4  1.00  0.00  0.00  0.00 -1.00  0.00 -0.00  0.00  1.00 -0.00  0.50  0.50

 DIRECT LATTICE VECTORS CARTESIAN COMPONENTS (ANGSTROM)
          X                    Y                    Z
   0.714453958478E+01   0.436411501368E-15   0.738139301970E-02
   0.218418616094E-18   0.922621818903E+01   0.585890454798E-18
  -0.560159916536E+01   0.772244760032E-15   0.113314903778E+02


 CARTESIAN COORDINATES - PRIMITIVE CELL
 *******************************************************************************
 *      ATOM          X(ANGSTROM)         Y(ANGSTROM)         Z(ANGSTROM)
 *******************************************************************************
    1     8 O     2.783020889421E+00 -6.290547919080E-01  2.421138692893E+00
    2     8 O     1.560719112679E+00  3.984054302602E+00  3.251987889007E+00
    3     8 O    -2.783020889421E+00  6.290547919080E-01 -2.421138692893E+00
    4     8 O    -1.560719112679E+00 -3.984054302612E+00 -3.251987889047E+00
    5     8 O     7.812963849280E-01  4.578175631581E+00 -2.236300830479E+00
    6     8 O     2.019503197752E+00 -3.493346293900E-02 -3.429444358441E+00
    7     8 O    -7.812963849280E-01 -4.578175631581E+00  2.236300830479E+00
    8     8 O    -2.019503197752E+00  3.493346292900E-02  3.429444358401E+00
    9     7 N     2.961335021211E+00 -4.218440286125E+00 -1.815064636625E+00
   10     7 N    -1.605354385310E-01  3.946688083850E-01 -3.850680552295E+00
   11     7 N    -2.961335021211E+00  4.218440286125E+00  1.815064636625E+00
   12     7 N     1.605354385310E-01 -3.946688083950E-01  3.850680552255E+00
   13     6 C     2.866669194260E+00 -3.341979819906E+00 -7.199164693740E-01
   14     6 C    -6.586961158000E-02  1.271129274604E+00 -4.945828719546E+00
   15     6 C    -2.866669194260E+00  3.341979819906E+00  7.199164693740E-01
   16     6 C     6.586961158000E-02 -1.271129274614E+00  4.945828719506E+00
   17     6 C     1.795937696838E+00 -3.303051529566E+00  1.664031365920E-01
   18     6 C     1.004861885842E+00  1.310057564944E+00 -5.832148325512E+00
   19     6 C    -1.795937696838E+00  3.303051529566E+00 -1.664031365920E-01
   20     6 C    -1.004861885842E+00 -1.310057564954E+00  5.832148325472E+00
   21     6 C     1.788597066481E+00 -2.394042738579E+00  1.213916356216E+00
   22     6 C     2.555142935619E+00  2.219066355931E+00  4.459210225684E+00
   23     6 C    -1.788597066481E+00  2.394042738579E+00 -1.213916356216E+00
   24     6 C    -2.555142935619E+00 -2.219066355941E+00 -4.459210225724E+00
   25     6 C     2.850677997252E+00 -1.516513232276E+00  1.408606471126E+00
   26     6 C     1.493062004848E+00  3.096595862234E+00  4.264520110774E+00
   27     6 C    -2.850677997252E+00  1.516513232276E+00 -1.408606471126E+00
   28     6 C    -1.493062004848E+00 -3.096595862244E+00 -4.264520110814E+00
   29     6 C    -3.207682500431E+00 -1.579708661305E+00  5.332878374140E-01
   30     6 C     4.068829177510E-01  3.033400433205E+00  5.132457351466E+00
   31     6 C     3.207682500431E+00  1.579708661305E+00 -5.332878374140E-01
   32     6 C    -4.068829177510E-01 -3.033400433215E+00 -5.132457351506E+00
   33     6 C    -3.206800162668E+00 -2.478747212498E+00 -5.163712558790E-01
   34     6 C    -1.136939839432E+00  2.134361882012E+00 -5.156755326061E+00
   35     6 C     3.206800162668E+00  2.478747212498E+00  5.163712558790E-01
   36     6 C     1.136939839432E+00 -2.134361882022E+00  5.156755326021E+00
   37     6 C     1.973186060956E+00  4.444582478592E+00 -2.521044768673E+00
   38     6 C     8.276135217240E-01 -1.685266159280E-01 -3.144700420247E+00
   39     6 C    -1.973186060956E+00 -4.444582478592E+00  2.521044768673E+00
   40     6 C    -8.276135217240E-01  1.685266159180E-01  3.144700420207E+00
   41     6 C     2.414355403504E+00  3.620112398680E+00 -3.696627764720E+00
   42     6 C     3.864441791760E-01 -9.929966958400E-01 -1.969117424200E+00
   43     6 C    -2.414355403504E+00 -3.620112398680E+00  3.696627764720E+00
   44     6 C    -3.864441791760E-01  9.929966958300E-01  1.969117424160E+00
   45     1 H     9.590863198770E-01 -3.972972647892E+00  5.961026888300E-02
   46     1 H     1.841713262803E+00  6.401364466180E-01 -5.725355457803E+00
   47     1 H    -9.590863198770E-01  3.972972647892E+00 -5.961026888300E-02
   48     1 H    -1.841713262803E+00 -6.401364466280E-01  5.725355457763E+00
   49     1 H     9.415886646950E-01 -2.380686556983E+00  1.888194580422E+00
   50     1 H     3.402151337405E+00  2.232422537527E+00  3.784932001478E+00
   51     1 H    -9.415886646950E-01  2.380686556983E+00 -1.888194580422E+00
   52     1 H    -3.402151337405E+00 -2.232422537537E+00 -3.784932001518E+00
   53     1 H    -2.365383759650E+00 -9.125082268640E-01  6.575631143750E-01
   54     1 H    -4.354158230300E-01  3.700600867646E+00  5.008182074505E+00
   55     1 H     2.365383759650E+00  9.125082268640E-01 -6.575631143750E-01
   56     1 H     4.354158230300E-01 -3.700600867656E+00 -5.008182074545E+00
   57     1 H    -2.352756049977E+00 -2.509684098009E+00 -1.180711977075E+00
   58     1 H    -1.990983952123E+00  2.103424996501E+00 -4.492414604865E+00
   59     1 H     2.352756049977E+00  2.509684098009E+00  1.180711977075E+00
   60     1 H     1.990983952123E+00 -2.103424996511E+00  4.492414604825E+00
   61     1 H    -3.479661262811E+00 -2.637407765290E-01  2.655254666789E+00
   62     1 H     6.788616801310E-01  4.349368317981E+00  3.010490522091E+00
   63     1 H     3.479661262811E+00  2.637407765290E-01 -2.655254666789E+00
   64     1 H    -6.788616801310E-01 -4.349368317991E+00 -3.010490522131E+00
   65     1 H    -3.243593848336E+00 -4.353390794627E+00 -2.178217665857E+00
   66     1 H    -1.100146153764E+00  2.597182998830E-01 -3.494908916083E+00
   67     1 H     3.243593848336E+00  4.353390794627E+00  2.178217665857E+00
   68     1 H     1.100146153764E+00 -2.597182998930E-01  3.494908916043E+00
   69     1 H     1.781328968649E+00  3.823839441520E+00 -4.558715291487E+00
   70     1 H     1.019470614031E+00 -7.892696530000E-01 -1.107029897433E+00
   71     1 H    -1.781328968649E+00 -3.823839441520E+00  4.558715291487E+00
   72     1 H    -1.019470614031E+00  7.892696529900E-01  1.107029897393E+00
   73     1 H     3.453773493281E+00  3.786128213960E+00 -3.971606292838E+00
   74     1 H    -6.529739106010E-01 -8.269808805600E-01 -1.694138896082E+00
   75     1 H    -3.453773493281E+00 -3.786128213960E+00  3.971606292838E+00
   76     1 H     6.529739106010E-01  8.269808805500E-01  1.694138896042E+00
   77     1 H     2.288676064686E+00  2.562173954276E+00 -3.470824502223E+00
   78     1 H     5.121235179940E-01 -2.050935140244E+00 -2.194920686697E+00
   79     1 H    -2.288676064686E+00 -2.562173954276E+00  3.470824502223E+00
   80     1 H    -5.121235179940E-01  2.050935140234E+00  2.194920686657E+00

 *******************************************************************************
 STARTING BASIS SET HANDLING 
 *******************************************************************************

 Loading internal basis set: DEF2-MSVP           

 Please cite in your publication:
 Fully Optimized Contracted Gaussian Basis Sets for Atoms Li to Kr. A. Schäfer, H. Horn and R. Ahlrichs; J. Chem. Phys. 97, 2571 (1992).                                                                                                                         
 S. Grimme, J. G. Brandenburg, C. Bannwarth, and A. Hansen, J. Chem. Phys., 143, 054107 (2015).                                                                                                                                                                  

 *******************************************************************************
 LOCAL ATOMIC FUNCTIONS BASIS SET
 *******************************************************************************
   ATOM   X(AU)   Y(AU)   Z(AU)  N. TYPE  EXPONENT  S COEF   P COEF   D/F/G COEF
 *******************************************************************************
   1 O    5.259  -1.189   4.575
                                  1 S  
                                         6.773E+03 1.727E-03 0.000E+00 0.000E+00
                                         1.017E+03 1.325E-02 0.000E+00 0.000E+00
                                         2.313E+02 6.603E-02 0.000E+00 0.000E+00
                                         6.501E+01 2.353E-01 0.000E+00 0.000E+00
                                         2.050E+01 5.498E-01 0.000E+00 0.000E+00
                                  2 S  
                                         6.716E+00 1.000E+00 0.000E+00 0.000E+00
                                  3 S  
                                         1.147E+00 1.000E+00 0.000E+00 0.000E+00
                                  4 S  
                                         3.342E-01 1.000E+00 0.000E+00 0.000E+00
                           5-     7 P  
                                         1.769E+01 0.000E+00 4.359E-02 0.000E+00
                                         3.854E+00 0.000E+00 2.318E-01 0.000E+00
                                         1.047E+00 0.000E+00 5.146E-01 0.000E+00
                           8-    10 P  
                                         2.759E-01 0.000E+00 1.000E+00 0.000E+00
                          11-    15 D  
                                         8.000E-01 0.000E+00 0.000E+00 1.000E+00
   2 O    2.949   7.529   6.145
   3 O   -5.259   1.189  -4.575
   4 O   -2.949  -7.529  -6.145
   5 O    1.476   8.651  -4.226
   6 O    3.816  -0.066  -6.481
   7 O   -1.476  -8.651   4.226
   8 O   -3.816   0.066   6.481
   9 N    5.596  -7.972  -3.430
                                121 S  
                                         5.072E+03 1.707E-03 0.000E+00 0.000E+00
                                         7.614E+02 1.309E-02 0.000E+00 0.000E+00
                                         1.732E+02 6.510E-02 0.000E+00 0.000E+00
                                         4.867E+01 2.305E-01 0.000E+00 0.000E+00
                                         1.533E+01 5.330E-01 0.000E+00 0.000E+00
                                122 S  
                                         5.019E+00 1.000E+00 0.000E+00 0.000E+00
                                123 S  
                                         8.355E-01 1.000E+00 0.000E+00 0.000E+00
                                124 S  
                                         2.463E-01 1.000E+00 0.000E+00 0.000E+00
                         125-   127 P  
                                         1.355E+01 0.000E+00 4.063E-02 0.000E+00
                                         2.918E+00 0.000E+00 2.209E-01 0.000E+00
                                         7.983E-01 0.000E+00 5.186E-01 0.000E+00
                         128-   130 P  
                                         2.190E-01 0.000E+00 1.000E+00 0.000E+00
                         131-   135 D  
                                         8.000E-01 0.000E+00 0.000E+00 1.000E+00
  10 N   -0.303   0.746  -7.277
  11 N   -5.596   7.972   3.430
  12 N    0.303  -0.746   7.277
  13 C    5.417  -6.315  -1.360
                                181 S  
                                         3.624E+03 1.634E-03 0.000E+00 0.000E+00
                                         5.440E+02 1.252E-02 0.000E+00 0.000E+00
                                         1.237E+02 6.211E-02 0.000E+00 0.000E+00
                                         3.476E+01 2.182E-01 0.000E+00 0.000E+00
                                         1.093E+01 4.980E-01 0.000E+00 0.000E+00
                                182 S  
                                         3.574E+00 1.000E+00 0.000E+00 0.000E+00
                                183 S  
                                         5.748E-01 1.000E+00 0.000E+00 0.000E+00
                                184 S  
                                         1.730E-01 1.000E+00 0.000E+00 0.000E+00
                         185-   187 P  
                                         9.443E+00 0.000E+00 3.790E-02 0.000E+00
                                         2.002E+00 0.000E+00 2.082E-01 0.000E+00
                                         5.463E-01 0.000E+00 5.047E-01 0.000E+00
                         188-   190 P  
                                         1.520E-01 0.000E+00 1.000E+00 0.000E+00
                         191-   195 D  
                                         8.000E-01 0.000E+00 0.000E+00 1.000E+00
  14 C   -0.124   2.402  -9.346
  15 C   -5.417   6.315   1.360
  16 C    0.124  -2.402   9.346
  17 C    3.394  -6.242   0.314
  18 C    1.899   2.476 -11.021
  19 C   -3.394   6.242  -0.314
  20 C   -1.899  -2.476  11.021
  21 C    3.380  -4.524   2.294
  22 C    4.829   4.193   8.427
  23 C   -3.380   4.524  -2.294
  24 C   -4.829  -4.193  -8.427
  25 C    5.387  -2.866   2.662
  26 C    2.821   5.852   8.059
  27 C   -5.387   2.866  -2.662
  28 C   -2.821  -5.852  -8.059
  29 C   -6.062  -2.985   1.008
  30 C    0.769   5.732   9.699
  31 C    6.062   2.985  -1.008
  32 C   -0.769  -5.732  -9.699
  33 C   -6.060  -4.684  -0.976
  34 C   -2.149   4.033  -9.745
  35 C    6.060   4.684   0.976
  36 C    2.149  -4.033   9.745
  37 C    3.729   8.399  -4.764
  38 C    1.564  -0.318  -5.943
  39 C   -3.729  -8.399   4.764
  40 C   -1.564   0.318   5.943
  41 C    4.562   6.841  -6.986
  42 C    0.730  -1.876  -3.721
  43 C   -4.562  -6.841   6.986
  44 C   -0.730   1.876   3.721
  45 H    1.812  -7.508   0.113
                                661 S  
                                         1.874E+01 1.968E-02 0.000E+00 0.000E+00
                                         2.826E+00 1.380E-01 0.000E+00 0.000E+00
                                         6.401E-01 4.783E-01 0.000E+00 0.000E+00
                                662 S  
                                         1.756E-01 1.000E+00 0.000E+00 0.000E+00
  46 H    3.480   1.210 -10.819
  47 H   -1.812   7.508  -0.113
  48 H   -3.480  -1.210  10.819
  49 H    1.779  -4.499   3.568
  50 H    6.429   4.219   7.152
  51 H   -1.779   4.499  -3.568
  52 H   -6.429  -4.219  -7.152
  53 H   -4.470  -1.724   1.243
  54 H   -0.823   6.993   9.464
  55 H    4.470   1.724  -1.243
  56 H    0.823  -6.993  -9.464
  57 H   -4.446  -4.743  -2.231
  58 H   -3.762   3.975  -8.489
  59 H    4.446   4.743   2.231
  60 H    3.762  -3.975   8.489
  61 H   -6.576  -0.498   5.018
  62 H    1.283   8.219   5.689
  63 H    6.576   0.498  -5.018
  64 H   -1.283  -8.219  -5.689
  65 H   -6.130  -8.227  -4.116
  66 H   -2.079   0.491  -6.604
  67 H    6.130   8.227   4.116
  68 H    2.079  -0.491   6.604
  69 H    3.366   7.226  -8.615
  70 H    1.927  -1.492  -2.092
  71 H   -3.366  -7.226   8.615
  72 H   -1.927   1.492   2.092
  73 H    6.527   7.155  -7.505
  74 H   -1.234  -1.563  -3.201
  75 H   -6.527  -7.155   7.505
  76 H    1.234   1.563   3.201
  77 H    4.325   4.842  -6.559
  78 H    0.968  -3.876  -4.148
  79 H   -4.325  -4.842   6.559
  80 H   -0.968   3.876   4.148

 *******************************************************************************
 FINISHED BASIS SET HANDLING 
 *******************************************************************************

 INFORMATION **** SET_MPP **** PCRYSTAL CALCULATION
 INFORMATION **** READM2 **** NEW DEFAULT: FOCK/KS MATRIX MIXING SET TO 30 %
 INFORMATION **** READM2 **** NEW DEFAULT: FULL DIRECT SCF MODE
 INFORMATION **** READM2 **** NEW DEFAULT: COULOMB BIPOLAR BUFFER SET TO 32 Mb
 INFORMATION **** READM2 **** NEW DEFAULT: EXCHANGE BIPOLAR BUFFER SET TO 32 Mb

 *******************************************************************************
 NEW DEFAULT: DFT INTEGRATION GRID INCREASED TO XLGRID
 NEW DEFAULT: DIIS ACCELERATOR ACTIVE
 USE KEYWORD NODIIS TO TURN IT OFF
 *******************************************************************************

 INFORMATION **** RDDFTP **** PBEh-3c calculation
 INFORMATION **** RDDFTP **** PBEh hybrid functional combined with D3 and gCP

PLEASE CITE:
(1) PBEh-3c Reference
 S. Grimme, J. G. Brandenburg, C. Bannwarth, and A. Hansen, 
 J. Chem. Phys. 143, 054107 (2015)
(2) DFT-D3 Reference
 S. Grimme, J. Antony, S. Ehrlich, and H. Krieg, J. Chem. Phys. 132, 154104 (2010)
(3) gCP Reference
 H. Kruse and S. Grimme J. Chem. Phys, 136, 154101 (2012)
 J. G. Brandenburg, M. Alessio, B. Civalleri, M. F. Peintinger
 T. Bredow, and S. Grimme, J. Phys. Chem. A, 117, 9282 (2013) 

 WARNING **** RDDFTP **** PBEh-3c has to be combined with def2-mSVP basis set
 WARNING **** RDDFTP **** Note: Harmonic frequencies are scaled by 0.95
 WARNING **** RDDFTP **** as recommended in original publication
 INFORMATION **** TOLDEE **** SCF TOL ON TOTAL ENERGY SET TO           9
 INFORMATION **** TOLINTEG **** COULOMB AND EXCHANGE SERIES TOLERANCES MODIFIED
 INFORMATION **** MAXCYCLE **** MAX NUMBER OF SCF CYCLES SET TO          30
 WARNING **** READM2 **** PROBABLE LOSS IN FREQCALC ACCURACY; SCF TOL LT          10
 *******************************************************************************
 N. OF ATOMS PER CELL        80  COULOMB OVERLAP TOL         (T1) 10**   -8
 NUMBER OF SHELLS           380  COULOMB PENETRATION TOL     (T2) 10**   -8
 NUMBER OF AO               732  EXCHANGE OVERLAP TOL        (T3) 10**   -8
 N. OF ELECTRONS PER CELL   320  EXCHANGE PSEUDO OVP (F(G))  (T4) 10**   -8
 CORE ELECTRONS PER CELL     88  EXCHANGE PSEUDO OVP (P(G))  (T5) 10**  -24
 N. OF SYMMETRY OPERATORS     4  POLE ORDER IN MONO ZONE                  4
 *******************************************************************************
 TYPE OF CALCULATION :  RESTRICTED CLOSED SHELL
 KOHN-SHAM HAMILTONIAN

 (EXCHANGE)[CORRELATION] FUNCTIONAL:(PBEh-3c)[PBEh-3c]


 HYBRID EXCHANGE - PERCENTAGE OF FOCK EXCHANGE    42.0000

 CAPPA:IS1  4;IS2  4;IS3  2; K PTS MONK NET  18; SYMMOPS:K SPACE   4;G SPACE   4

 *******************************************************************************
 MAX NUMBER OF SCF CYCLES      30  CONVERGENCE ON DELTAP        10**-19
 WEIGHT OF F(I) IN F(I+1)      50% CONVERGENCE ON ENERGY        10**- 9
 SHRINK. FACT.(MONKH.)    4  4  2  NUMBER OF K POINTS IN THE IBZ     18
 SHRINKING FACTOR(GILAT NET)    4  NUMBER OF K POINTS(GILAT NET)     18
 *******************************************************************************
 *** K POINTS COORDINATES (OBLIQUE COORDINATES IN UNITS OF IS =  4)
   1-R(  0  0  0)   2-C(  1  0  0)   3-R(  2  0  0)   4-C(  0  1  0)
   5-C(  1  1  0)   6-C(  2  1  0)   7-R(  0  2  0)   8-C(  1  2  0)
   9-R(  2  2  0)  10-R(  0  0  1)  11-C(  1  0  1)  12-R(  2  0  1)
  13-C(  0  1  1)  14-C(  1  1  1)  15-C(  2  1  1)  16-R(  0  2  1)
  17-C(  1  2  1)  18-R(  2  2  1)

 DIRECT LATTICE VECTORS COMPON. (A.U.)     RECIP. LATTICE VECTORS COMPON. (A.U.) 
        X            Y            Z              X            Y            Z
   13.5012232    0.0000000    0.0139488      0.4651414   -0.0000000    0.2299376
    0.0000000   17.4350256    0.0000000     -0.0000000    0.3603772   -0.0000000
  -10.5854883    0.0000000   21.4134135     -0.0003030   -0.0000000    0.2932731

 DISK SPACE FOR EIGENVECTORS (FTN 10)    15003072 REALS

 SYMMETRY ADAPTION OF THE BLOCH FUNCTIONS ENABLED
 TTTTTTTTTTTTTTTTTTTTTTTTTTTTTT gordsh1     TELAPSE        3.60 TCPU        2.06

 MATRIX SIZE: P(G) 2284656, F(G)  213904, P(G) IRR  289747, F(G) IRR   54260
 MAX G-VECTOR INDEX FOR 1- AND 2-ELECTRON INTEGRALS  95

 TTTTTTTTTTTTTTTTTTTTTTTTTTTTTT INPUT       TELAPSE        3.76 TCPU        2.21

 NEIGHBORS OF THE NON-EQUIVALENT ATOMS

 N = NUMBER OF NEIGHBORS AT DISTANCE R
    ATOM  N     R/ANG      R/AU   NEIGHBORS (ATOM LABELS AND CELL INDICES)
   1 O    1     0.9846     1.8606   61 H    1 0 0
   1 O    1     1.3481     2.5475   25 C    0 0 0
   1 O    1     2.0301     3.8364   68 H    0 0 0
   1 O    1     2.3583     4.4565   21 C    0 0 0
   1 O    1     2.4023     4.5398   29 C    1 0 0
   1 O    1     2.5968     4.9071   49 H    0 0 0

   5 O    1     1.2327     2.3294   37 C    0 0 0
   5 O    1     1.6795     3.1737   64 H    0 1 0
   5 O    1     2.2615     4.2737    9 N    0 1 0
   5 O    1     2.3911     4.5185   41 C    0 0 0
   5 O    1     2.3997     4.5348   45 H    0 1 0
   5 O    1     2.6113     4.9347   78 H    0 1 0

   9 N    1     1.0137     1.9157   65 H    1 0 0
   9 N    1     1.3387     2.5297   37 C    0-1 0
   9 N    1     1.4059     2.6567   13 C    0 0 0
   9 N    1     2.2615     4.2737    5 O    0-1 0
   9 N    1     2.3845     4.5060   33 C    1 0 0
   9 N    1     2.4011     4.5373   41 C    0-1 0

  13 C    1     1.3905     2.6277   17 C    0 0 0
  13 C    1     1.3917     2.6299   33 C    1 0 0
  13 C    1     1.4059     2.6567    9 N    0 0 0
  13 C    1     2.0489     3.8718   65 H    1 0 0
  13 C    1     2.1458     4.0549   57 H    1 0 0
  13 C    1     2.1552     4.0726   45 H    0 0 0

  17 C    1     1.0773     2.0358   45 H    0 0 0
  17 C    1     1.3870     2.6210   21 C    0 0 0
  17 C    1     1.3905     2.6277   13 C    0 0 0
  17 C    1     2.1320     4.0288   49 H    0 0 0
  17 C    1     2.3923     4.5207   33 C    1 0 0
  17 C    1     2.4181     4.5696   25 C    0 0 0

  21 C    1     1.0827     2.0460   49 H    0 0 0
  21 C    1     1.3870     2.6210   17 C    0 0 0
  21 C    1     1.3914     2.6294   25 C    0 0 0
  21 C    1     2.1245     4.0147   45 H    0 0 0
  21 C    1     2.3583     4.4565    1 O    0 0 0
  21 C    1     2.3940     4.5241   29 C    1 0 0

  25 C    1     1.3481     2.5475    1 O    0 0 0
  25 C    1     1.3914     2.6294   21 C    0 0 0
  25 C    1     1.3918     2.6301   29 C    1 0 0
  25 C    1     1.9506     3.6862   61 H    1 0 0
  25 C    1     2.1497     4.0624   49 H    0 0 0
  25 C    1     2.1533     4.0692   53 H    1 0 0

  29 C    1     1.0817     2.0441   53 H    0 0 0
  29 C    1     1.3820     2.6117   33 C    0 0 0
  29 C    1     1.3918     2.6301   25 C   -1 0 0
  29 C    1     2.1292     4.0236   57 H    0 0 0
  29 C    1     2.3940     4.5241   21 C   -1 0 0
  29 C    1     2.4023     4.5398    1 O   -1 0 0

  33 C    1     1.0824     2.0455   57 H    0 0 0
  33 C    1     1.3820     2.6117   29 C    0 0 0
  33 C    1     1.3917     2.6299   13 C   -1 0 0
  33 C    1     2.1305     4.0261   53 H    0 0 0
  33 C    1     2.3845     4.5060    9 N   -1 0 0
  33 C    1     2.3923     4.5207   17 C   -1 0 0

  37 C    1     1.2327     2.3294    5 O    0 0 0
  37 C    1     1.3387     2.5297    9 N    0 1 0
  37 C    1     1.5021     2.8386   41 C    0 0 0
  37 C    1     2.0056     3.7900   65 H    1 1 0
  37 C    1     2.1319     4.0287   77 H    0 0 0
  37 C    1     2.1387     4.0416   69 H    0 0 0

  41 C    1     1.0879     2.0559   73 H    0 0 0
  41 C    1     1.0888     2.0575   69 H    0 0 0
  41 C    1     1.0890     2.0580   77 H    0 0 0
  41 C    1     1.5021     2.8386   37 C    0 0 0
  41 C    1     2.3911     4.5185    5 O    0 0 0
  41 C    1     2.4011     4.5373    9 N    0 1 0

  45 H    1     1.0773     2.0358   17 C    0 0 0
  45 H    1     2.1245     4.0147   21 C    0 0 0
  45 H    1     2.1552     4.0726   13 C    0 0 0
  45 H    1     2.3093     4.3639   47 H    0-1 0
  45 H    1     2.3997     4.5348    5 O    0-1 0
  45 H    1     2.4247     4.5821   49 H    0 0 0

  49 H    1     1.0827     2.0460   21 C    0 0 0
  49 H    1     2.1320     4.0288   17 C    0 0 0
  49 H    1     2.1497     4.0624   25 C    0 0 0
  49 H    1     2.4247     4.5821   45 H    0 0 0
  49 H    1     2.5968     4.9071    1 O    0 0 0
  49 H    1     2.6656     5.0372   68 H    0 0 0

  53 H    1     1.0817     2.0441   29 C    0 0 0
  53 H    1     2.1305     4.0261   33 C    0 0 0
  53 H    1     2.1533     4.0692   25 C   -1 0 0
  53 H    1     2.2158     4.1872   72 H    0 0 0
  53 H    1     2.3777     4.4931   61 H    0 0 0
  53 H    1     2.4352     4.6019   57 H    0 0 0

  57 H    1     1.0824     2.0455   33 C    0 0 0
  57 H    1     2.1292     4.0236   29 C    0 0 0
  57 H    1     2.1458     4.0549   13 C   -1 0 0
  57 H    1     2.2777     4.3042   65 H    0 0 0
  57 H    1     2.4352     4.6019   53 H    0 0 0
  57 H    1     2.4463     4.6228   74 H    0 0 0

  61 H    1     0.9846     1.8606    1 O   -1 0 0
  61 H    1     1.6795     3.1737    8 O    0 0 0
  61 H    1     1.9506     3.6862   25 C   -1 0 0
  61 H    1     2.3777     4.4931   53 H    0 0 0
  61 H    1     2.5117     4.7464   29 C    0 0 0
  61 H    1     2.6964     5.0954   68 H   -1 0 0

  65 H    1     1.0137     1.9157    9 N   -1 0 0
  65 H    1     2.0056     3.7900   37 C   -1-1 0
  65 H    1     2.0301     3.8364    4 O    0 0 0
  65 H    1     2.0489     3.8718   13 C   -1 0 0
  65 H    1     2.1503     4.0634   73 H   -1-1 0
  65 H    1     2.2777     4.3042   57 H    0 0 0

  69 H    1     1.0888     2.0575   41 C    0 0 0
  69 H    1     1.7415     3.2909   77 H    0 0 0
  69 H    1     1.7729     3.3503   73 H    0 0 0
  69 H    1     2.1387     4.0416   37 C    0 0 0
  69 H    1     2.2158     4.1872   56 H    0 1 0
  69 H    1     2.6387     4.9864    5 O    0 0 0

  73 H    1     1.0879     2.0559   41 C    0 0 0
  73 H    1     1.7625     3.3306   77 H    0 0 0
  73 H    1     1.7729     3.3503   69 H    0 0 0
  73 H    1     2.1503     4.0634   65 H    1 1 0
  73 H    1     2.1748     4.1098   37 C    0 0 0
  73 H    1     2.4463     4.6228   58 H    1 0 0

  77 H    1     1.0890     2.0580   41 C    0 0 0
  77 H    1     1.7415     3.2909   69 H    0 0 0
  77 H    1     1.7625     3.3306   73 H    0 0 0
  77 H    1     2.1319     4.0287   37 C    0 0 0
  77 H    1     2.6113     4.9347    6 O    0 0 0
  77 H    1     2.7141     5.1289   63 H    0 0 0


 SYMMETRY ALLOWED INTERNAL DEGREE(S) OF FREEDOM:  60
 TTTTTTTTTTTTTTTTTTTTTTTTTTTTTT SYMM        TELAPSE        3.79 TCPU        2.24
 TTTTTTTTTTTTTTTTTTTTTTTTTTTTTT INT_SCREEN  TELAPSE        4.11 TCPU        2.56

 *******************************************************************************
 *                                                                             *
 *                                                                             *
 *         FFFFF  RRRR   EEEE   QQQ   U   U  EEEE  N   N   CCC  Y   Y          *
 *         F      R   R  E     Q   Q  U   U  E     NN  N  C      Y Y           *
 *         FFF    RRRR   EEEE  Q   Q  U   U  EEEE  N N N  C       Y            *
 *         F      R   R  E     Q  QQ  U   U  E     N  NN  C       Y            *
 *         F      R   R  EEEE   QQ Q   UUU   EEEE  N   N   CCC    Y            *
 *                                                                             *
 *                                                                             *
 * CALCULATION OF PHONON FREQUENCIES AT THE GAMMA POINT.                       *
 *                                                                             *
 * SYMMETRY IS EXPLOITED TO BUILD THE TOTAL HESSIAN MATRIX.                    *
 * (F. PASCALE PHD THESIS TURIN-PARIS 2002)                                    *
 *                                                                             *
 *******************************************************************************


 * INTENSITIES COMPUTED VIA THE BERRY PHASE APPROACH                           *
 *                                                                             *
 * REFERENCES TO BE QUOTED WHEN USING THIS MODULE:                             *
 *                                                                             *
 * F. Pascale, C.M. Zicovich-Wilson, F. Lopez, B. Civalleri                    *
 * R. Orlando, R. Dovesi                                                       *
 * The calculation of the vibration frequencies of crystalline                 *
 * compounds and its implementation in the CRYSTAL code                        *
 * J. Comput. Chem. 25 (2004) 888-897                                          *
 *                                                                             *
 * C.M. Zicovich-Wilson, F. Pascale, C. Roetti, V.R. Saunders,                 *
 * R. Orlando, R. Dovesi                                                       *
 * The calculation of the vibration frequencies of alpha-quartz:               *
 * the effect of hamiltonian and basis set                                     *
 * J. Comput. Chem. 25 (2004) 1873-1881                                        *
 *******************************************************************************



 ATOMS ISOTOPIC MASS (AMU) FOR FREQUENCY CALCULATION 

    1 O      15.9949    2 O      15.9949    3 O      15.9949    4 O      15.9949
    5 O      15.9949    6 O      15.9949    7 O      15.9949    8 O      15.9949
    9 N      14.0031   10 N      14.0031   11 N      14.0031   12 N      14.0031
   13 C      12.0000   14 C      12.0000   15 C      12.0000   16 C      12.0000
   17 C      12.0000   18 C      12.0000   19 C      12.0000   20 C      12.0000
   21 C      12.0000   22 C      12.0000   23 C      12.0000   24 C      12.0000
   25 C      12.0000   26 C      12.0000   27 C      12.0000   28 C      12.0000
   29 C      12.0000   30 C      12.0000   31 C      12.0000   32 C      12.0000
   33 C      12.0000   34 C      12.0000   35 C      12.0000   36 C      12.0000
   37 C      12.0000   38 C      12.0000   39 C      12.0000   40 C      12.0000
   41 C      12.0000   42 C      12.0000   43 C      12.0000   44 C      12.0000
   45 H       1.0078   46 H       1.0078   47 H       1.0078   48 H       1.0078
   49 H       1.0078   50 H       1.0078   51 H       1.0078   52 H       1.0078
   53 H       1.0078   54 H       1.0078   55 H       1.0078   56 H       1.0078
   57 H       1.0078   58 H       1.0078   59 H       1.0078   60 H       1.0078
   61 H       1.0078   62 H       1.0078   63 H       1.0078   64 H       1.0078
   65 H       1.0078   66 H       1.0078   67 H       1.0078   68 H       1.0078
   69 H       1.0078   70 H       1.0078   71 H       1.0078   72 H       1.0078
   73 H       1.0078   74 H       1.0078   75 H       1.0078   76 H       1.0078
   77 H       1.0078   78 H       1.0078   79 H       1.0078   80 H       1.0078

 INFORMATION CONCERNING THE SCF+GRADIENT CALCULATIONS REQUIRED FOR
 GENERATING FREQUENCIES. IN PRINCIPLE 3N+1 SCF + GRADIENT
 CALCULATIONS  ARE REQUIRED;
 FOR EACH OF THEM THE REMAINING POINT SYMMETRY IS INDICATED.
 POINT SYMMETRY PERMITS TO GENERATE GRADIENTS FOR DISPLACEMENT B 
 STARTING FROM THE GRADIENT GENERATED BY DISPLACEMENT A.

   N   LABEL SYMBOL DISPLACEMENT     SYM. 

   1     EQUILIBRIUM GEOMETRY            4

   2      1   O            DX           1
   3      1   O            DY           1
   4      1   O            DZ           1
   5      5   O            DX           1
   6      5   O            DY           1
   7      5   O            DZ           1
   8      9   N            DX           1
   9      9   N            DY           1
  10      9   N            DZ           1
  11     13   C            DX           1
  12     13   C            DY           1
  13     13   C            DZ           1
  14     17   C            DX           1
  15     17   C            DY           1
  16     17   C            DZ           1
  17     21   C            DX           1
  18     21   C            DY           1
  19     21   C            DZ           1
  20     25   C            DX           1
  21     25   C            DY           1
  22     25   C            DZ           1
  23     29   C            DX           1
  24     29   C            DY           1
  25     29   C            DZ           1
  26     33   C            DX           1
  27     33   C            DY           1
  28     33   C            DZ           1
  29     37   C            DX           1
  30     37   C            DY           1
  31     37   C            DZ           1
  32     41   C            DX           1
  33     41   C            DY           1
  34     41   C            DZ           1
  35     45   H            DX           1
  36     45   H            DY           1
  37     45   H            DZ           1
  38     49   H            DX           1
  39     49   H            DY           1
  40     49   H            DZ           1
  41     53   H            DX           1
  42     53   H            DY           1
  43     53   H            DZ           1
  44     57   H            DX           1
  45     57   H            DY           1
  46     57   H            DZ           1
  47     61   H            DX           1
  48     61   H            DY           1
  49     61   H            DZ           1
  50     65   H            DX           1
  51     65   H            DY           1
  52     65   H            DZ           1
  53     69   H            DX           1
  54     69   H            DY           1
  55     69   H            DZ           1
  56     73   H            DX           1
  57     73   H            DY           1
  58     73   H            DZ           1
  59     77   H            DX           1
  60     77   H            DY           1
  61     77   H            DZ           1
 USE OF RESIDUAL SYMMETRY AFTER DISPLACEMENT

 NUMERICAL GRADIENT COMPUTED WITH A SINGLE DISPLACEMENT (+DX) FOR EACH
 CARTESIAN COORDINATE WITH RESPECT TO THE EQUILIBRIUM CONFIGURATION
 DX=  0.003 ANGSTROM
 NUMBER OF IRREDUCIBLE ATOMS                    20
 NUMBER OF SCF+GRADIENT CALCULATIONS            61

  ATOM  SYMOP  ORDER
    1      1      1
    5      1      1
    9      1      1
   13      1      1
   17      1      1
   21      1      1
   25      1      1
   29      1      1
   33      1      1
   37      1      1
   41      1      1
   45      1      1
   49      1      1
   53      1      1
   57      1      1
   61      1      1
   65      1      1
   69      1      1
   73      1      1
   77      1      1

 ATOM  : IRREDUCIBLE ATOM
 SYMOP : NUMBER OF SYMMETRY OPERATORS THAT DOESN'T MOVE THE IRREDUCIBLE ATOM
 ORDER : MAXIMUM ORDER AMONG THE OPERATORS OF THE IRREDUCIBLE ATOM

 *******************************************************************************


 GCALCO - MAX INDICES DIRECT LATTICE VECTOR    20    14    11
 NO.OF VECTORS CREATED 6999 STARS 1868 RMAX   203.40259 BOHR

 CAPPA:IS1  4;IS2  4;IS3  2; K PTS MONK NET  18; SYMMOPS:K SPACE   4;G SPACE   4

 TTTTTTTTTTTTTTTTTTTTTTTTTTTTTT gordsh1     TELAPSE        4.14 TCPU        2.59

 MATRIX SIZE: P(G) 2284656, F(G)  213904, P(G) IRR  289747, F(G) IRR   54260
 MAX G-VECTOR INDEX FOR 1- AND 2-ELECTRON INTEGRALS  95

 TTTTTTTTTTTTTTTTTTTTTTTTTTTTTT INPUT       TELAPSE        4.16 TCPU        2.61

 SYMMETRY ALLOWED INTERNAL DEGREE(S) OF FREEDOM:  60
 TTTTTTTTTTTTTTTTTTTTTTTTTTTTTT SYMM        TELAPSE        4.18 TCPU        2.63
 TTTTTTTTTTTTTTTTTTTTTTTTTTTTTT INT_SCREEN  TELAPSE        4.19 TCPU        2.64
 INFORMATION **** EXCBUF **** EXCH. BIPO BUFFER: WORDS USED =     3894327

 DFT PARAMETERS

     ATOM       ELECTRONS   NET CHARGE   R(ANGSTROM)
   1   8  O       8.0000      0.0000     0.74000000
   9   7  N       7.0000      0.0000     0.74000000
  13   6  C       6.0000      0.0000     0.77000000
  45   1  H       1.0000      0.0000     1.11000000

 SIZE OF GRID=     990057
 TTTTTTTTTTTTTTTTTTTTTTTTTTTTTT MAKE_GRID2  TELAPSE        7.50 TCPU        5.95
 BECKE WEIGHT FUNCTION
 RADSAFE =     2.00
 TOLERANCES - DENSITY:10**- 6; POTENTIAL:10**- 9; GRID WGT:10**-14

 RADIAL INTEGRATION  - INTERVALS (POINTS,UPPER LIMIT):            1( 99,  4.0*R)

 ANGULAR INTEGRATION - INTERVALS (ACCURACY LEVEL [N. POINTS] UPPER LIMIT):
  1(  6[ 146]   0.2)  2( 11[ 302]   0.5)  3( 14[ 590]   0.9)  4( 18[1454]   3.5)
  5( 14[ 590]9999.0)
 TTTTTTTTTTTTTTTTTTTTTTTTTTTTTT INT_CALC    TELAPSE        7.54 TCPU        5.99

 *******************************************************************************
 F1 vol step-2 freq - PBEh-3c                                                    
 CRYSTAL - SCF - TYPE OF CALCULATION :  RESTRICTED CLOSED SHELL
 *******************************************************************************

 CAPPA:IS1  4;IS2  4;IS3  2; K PTS MONK NET  18; SYMMOPS:K SPACE   4;G SPACE   4

 TTTTTTTTTTTTTTTTTTTTTTTTTTTTTT SDIK        TELAPSE        7.80 TCPU        6.25

 AAAAAAAAAAAAAAAAAAAAAAAAAAAAAAAAAAAAAAAAAAAAAAAAAAAAAAAAAAAAAAAAAAAAAAAAAAAAAAA
         ATOMIC WAVEFUNCTION(S)


 NUCLEAR CHARGE  8.0  SYMMETRY SPECIES            S    P
 N. ELECTRONS    8.0  NUMBER OF PRIMITIVE GTOS    8    4
                      NUMBER OF CONTRACTED GTOS   4    2
                      NUMBER OF CLOSED SHELLS     2    0
                      OPEN SHELL OCCUPATION       0    4

  ZNUC SCFIT  TOTAL HF ENERGY   KINETIC ENERGY   VIRIAL THEOREM ACCURACY
   8.0  12   -7.477373220E+01  7.477365593E+01 -2.000001020E+00  3.8E-06

 NUCLEAR CHARGE  7.0  SYMMETRY SPECIES            S    P
 N. ELECTRONS    7.0  NUMBER OF PRIMITIVE GTOS    8    4
                      NUMBER OF CONTRACTED GTOS   4    2
                      NUMBER OF CLOSED SHELLS     2    0
                      OPEN SHELL OCCUPATION       0    3

  ZNUC SCFIT  TOTAL HF ENERGY   KINETIC ENERGY   VIRIAL THEOREM ACCURACY
   7.0   9   -5.437948210E+01  5.437948297E+01 -1.999999984E+00  1.2E-06

 NUCLEAR CHARGE  6.0  SYMMETRY SPECIES            S    P
 N. ELECTRONS    6.0  NUMBER OF PRIMITIVE GTOS    8    4
                      NUMBER OF CONTRACTED GTOS   4    2
                      NUMBER OF CLOSED SHELLS     2    0
                      OPEN SHELL OCCUPATION       0    2

  ZNUC SCFIT  TOTAL HF ENERGY   KINETIC ENERGY   VIRIAL THEOREM ACCURACY
   6.0   9   -3.767634636E+01  3.767630973E+01 -2.000000972E+00  4.2E-06

 NUCLEAR CHARGE  1.0  SYMMETRY SPECIES            S
 N. ELECTRONS    1.0  NUMBER OF PRIMITIVE GTOS    4
                      NUMBER OF CONTRACTED GTOS   2
                      NUMBER OF CLOSED SHELLS     0
                      OPEN SHELL OCCUPATION       1

  ZNUC SCFIT  TOTAL HF ENERGY   KINETIC ENERGY   VIRIAL THEOREM ACCURACY
   1.0   1   -4.977266687E-01  5.190767460E-01 -1.958869132E+00  2.2E-17

 AAAAAAAAAAAAAAAAAAAAAAAAAAAAAAAAAAAAAAAAAAAAAAAAAAAAAAAAAAAAAAAAAAAAAAAAAAAAAAA

 TTTTTTTTTTTTTTTTTTTTTTTTTTTTTT MOQGAD      TELAPSE        8.36 TCPU        6.69
 TTTTTTTTTTTTTTTTTTTTTTTTTTTTTT SHELLXN     TELAPSE       10.60 TCPU        8.93
 TTTTTTTTTTTTTTTTTTTTTTTTTTTTTT MONMO3      TELAPSE       11.53 TCPU        9.86
 NUMERICALLY INTEGRATED DENSITY    319.9998315241
 TTTTTTTTTTTTTTTTTTTTTTTTTTTTTT NUMDFT      TELAPSE       11.96 TCPU       10.28
 CYC   0 ETOT(AU) -2.070782185053E+03 DETOT -2.07E+03 tst  0.00E+00 PX  1.00E+00
 TTTTTTTTTTTTTTTTTTTTTTTTTTTTTT DIIS        TELAPSE       11.99 TCPU       10.32
 TTTTTTTTTTTTTTTTTTTTTTTTTTTTTT FDIK        TELAPSE       12.58 TCPU       10.90
 INSULATING STATE
 TOP OF VALENCE BANDS -    BAND    160; K    1; EIG -2.8061452E-01 AU
 BOTTOM OF VIRTUAL BANDS - BAND    161; K    7; EIG -1.2625405E-01 AU
 INDIRECT ENERGY BAND GAP:   4.2004 eV
 BOTTOM OF VIRTUAL BANDS - BAND    161; K    1; EIG -1.2120322E-01 AU
 TTTTTTTTTTTTTTTTTTTTTTTTTTTTTT PDIG        TELAPSE       12.93 TCPU       11.25
 TTTTTTTTTTTTTTTTTTTTTTTTTTTTTT MOQGAD      TELAPSE       12.93 TCPU       11.26
 TTTTTTTTTTTTTTTTTTTTTTTTTTTTTT SHELLXN     TELAPSE       15.32 TCPU       13.60
 TTTTTTTTTTTTTTTTTTTTTTTTTTTTTT MONMO3      TELAPSE       16.27 TCPU       14.55
 NUMERICALLY INTEGRATED DENSITY    319.9998564769
 TTTTTTTTTTTTTTTTTTTTTTTTTTTTTT NUMDFT      TELAPSE       16.78 TCPU       15.06
 CYC   1 ETOT(AU) -2.057251838025E+03 DETOT  1.35E+01 tst  0.00E+00 PX  1.00E+00
 TTTTTTTTTTTTTTTTTTTTTTTTTTTTTT DIIS        TELAPSE       16.81 TCPU       15.09
 DIIS TEST: 0.17444E+01 AT SCF   CYCLE   1 - MIX   50 %
 TTTTTTTTTTTTTTTTTTTTTTTTTTTTTT FDIK        TELAPSE       17.39 TCPU       15.66
 INSULATING STATE
 TOP OF VALENCE BANDS -    BAND    160; K   10; EIG -2.4805212E-01 AU
 TOP OF VALENCE BANDS -    BAND    160; K    1; EIG -2.4818539E-01 AU
 BOTTOM OF VIRTUAL BANDS - BAND    161; K   16; EIG -4.7576339E-02 AU
 INDIRECT ENERGY BAND GAP:   5.4552 eV
 BOTTOM OF VIRTUAL BANDS - BAND    161; K    1; EIG -4.6917796E-02 AU
 TTTTTTTTTTTTTTTTTTTTTTTTTTTTTT PDIG        TELAPSE       17.74 TCPU       16.01
 TTTTTTTTTTTTTTTTTTTTTTTTTTTTTT MOQGAD      TELAPSE       17.74 TCPU       16.02
 TTTTTTTTTTTTTTTTTTTTTTTTTTTTTT SHELLXN     TELAPSE       20.09 TCPU       18.36
 TTTTTTTTTTTTTTTTTTTTTTTTTTTTTT MONMO3      TELAPSE       21.05 TCPU       19.32
 NUMERICALLY INTEGRATED DENSITY    319.9998505572
 TTTTTTTTTTTTTTTTTTTTTTTTTTTTTT NUMDFT      TELAPSE       21.39 TCPU       19.67
 CYC   2 ETOT(AU) -2.057712906254E+03 DETOT -4.61E-01 tst  9.79E-04 PX  1.27E-01
 TTTTTTTTTTTTTTTTTTTTTTTTTTTTTT DIIS        TELAPSE       21.43 TCPU       19.70
 DIIS TEST: 0.14044E+00 AT SCF   CYCLE   2 - DIIS ACTIVE - HISTORY:     2 CYCLES
 TTTTTTTTTTTTTTTTTTTTTTTTTTTTTT FDIK        TELAPSE       22.04 TCPU       20.29
 INSULATING STATE
 TOP OF VALENCE BANDS -    BAND    160; K   10; EIG -2.3898745E-01 AU
 TOP OF VALENCE BANDS -    BAND    160; K    1; EIG -2.3909930E-01 AU
 BOTTOM OF VIRTUAL BANDS - BAND    161; K   16; EIG -5.7322536E-03 AU
 INDIRECT ENERGY BAND GAP:   6.3472 eV
 BOTTOM OF VIRTUAL BANDS - BAND    161; K    1; EIG -1.3345393E-03 AU
 TTTTTTTTTTTTTTTTTTTTTTTTTTTTTT PDIG        TELAPSE       22.39 TCPU       20.64
 TTTTTTTTTTTTTTTTTTTTTTTTTTTTTT MOQGAD      TELAPSE       22.39 TCPU       20.64
 TTTTTTTTTTTTTTTTTTTTTTTTTTTTTT SHELLXN     TELAPSE       24.75 TCPU       22.99
 TTTTTTTTTTTTTTTTTTTTTTTTTTTTTT MONMO3      TELAPSE       25.71 TCPU       23.95
 NUMERICALLY INTEGRATED DENSITY    319.9998438938
 TTTTTTTTTTTTTTTTTTTTTTTTTTTTTT NUMDFT      TELAPSE       26.10 TCPU       24.34
 CYC   3 ETOT(AU) -2.057735009693E+03 DETOT -2.21E-02 tst  2.07E-04 PX  4.18E-02
 TTTTTTTTTTTTTTTTTTTTTTTTTTTTTT DIIS        TELAPSE       26.13 TCPU       24.37
 DIIS TEST: 0.78424E-01 AT SCF   CYCLE   3 - DIIS ACTIVE - HISTORY:     3 CYCLES
 TTTTTTTTTTTTTTTTTTTTTTTTTTTTTT FDIK        TELAPSE       26.71 TCPU       24.95
 INSULATING STATE
 TOP OF VALENCE BANDS -    BAND    160; K   10; EIG -2.4897491E-01 AU
 TOP OF VALENCE BANDS -    BAND    160; K    1; EIG -2.4916791E-01 AU
 BOTTOM OF VIRTUAL BANDS - BAND    161; K   16; EIG -1.2451021E-02 AU
 INDIRECT ENERGY BAND GAP:   6.4361 eV
 BOTTOM OF VIRTUAL BANDS - BAND    161; K    1; EIG -7.0586720E-03 AU
 TTTTTTTTTTTTTTTTTTTTTTTTTTTTTT PDIG        TELAPSE       27.06 TCPU       25.30
 TTTTTTTTTTTTTTTTTTTTTTTTTTTTTT MOQGAD      TELAPSE       27.07 TCPU       25.30
 TTTTTTTTTTTTTTTTTTTTTTTTTTTTTT SHELLXN     TELAPSE       29.41 TCPU       27.64
 TTTTTTTTTTTTTTTTTTTTTTTTTTTTTT MONMO3      TELAPSE       30.37 TCPU       28.61
 NUMERICALLY INTEGRATED DENSITY    319.9998472777
 TTTTTTTTTTTTTTTTTTTTTTTTTTTTTT NUMDFT      TELAPSE       30.63 TCPU       28.86
 CYC   4 ETOT(AU) -2.057752760493E+03 DETOT -1.78E-02 tst  1.16E-04 PX  3.21E-02
 TTTTTTTTTTTTTTTTTTTTTTTTTTTTTT DIIS        TELAPSE       30.66 TCPU       28.89
 DIIS TEST: 0.89581E-02 AT SCF   CYCLE   4 - DIIS ACTIVE - HISTORY:     4 CYCLES
 TTTTTTTTTTTTTTTTTTTTTTTTTTTTTT FDIK        TELAPSE       31.24 TCPU       29.47
 INSULATING STATE
 TOP OF VALENCE BANDS -    BAND    160; K   10; EIG -2.4660980E-01 AU
 TOP OF VALENCE BANDS -    BAND    160; K    1; EIG -2.4678672E-01 AU
 BOTTOM OF VIRTUAL BANDS - BAND    161; K   16; EIG -1.0344523E-02 AU
 INDIRECT ENERGY BAND GAP:   6.4291 eV
 BOTTOM OF VIRTUAL BANDS - BAND    161; K    1; EIG -5.6475333E-03 AU
 TTTTTTTTTTTTTTTTTTTTTTTTTTTTTT PDIG        TELAPSE       31.59 TCPU       29.82
 TTTTTTTTTTTTTTTTTTTTTTTTTTTTTT MOQGAD      TELAPSE       31.59 TCPU       29.82
 TTTTTTTTTTTTTTTTTTTTTTTTTTTTTT SHELLXN     TELAPSE       33.94 TCPU       32.16
 TTTTTTTTTTTTTTTTTTTTTTTTTTTTTT MONMO3      TELAPSE       34.90 TCPU       33.13
 NUMERICALLY INTEGRATED DENSITY    319.9998464818
 TTTTTTTTTTTTTTTTTTTTTTTTTTTTTT NUMDFT      TELAPSE       35.33 TCPU       33.55
 CYC   5 ETOT(AU) -2.057754883636E+03 DETOT -2.12E-03 tst  9.15E-06 PX  8.10E-03
 TTTTTTTTTTTTTTTTTTTTTTTTTTTTTT DIIS        TELAPSE       35.36 TCPU       33.59
 DIIS TEST: 0.78904E-03 AT SCF   CYCLE   5 - DIIS ACTIVE - HISTORY:     5 CYCLES
 TTTTTTTTTTTTTTTTTTTTTTTTTTTTTT FDIK        TELAPSE       35.94 TCPU       34.10
 INSULATING STATE
 TOP OF VALENCE BANDS -    BAND    160; K   10; EIG -2.4630816E-01 AU
 TOP OF VALENCE BANDS -    BAND    160; K    1; EIG -2.4649005E-01 AU
 BOTTOM OF VIRTUAL BANDS - BAND    161; K   16; EIG -1.0080115E-02 AU
 INDIRECT ENERGY BAND GAP:   6.4281 eV
 BOTTOM OF VIRTUAL BANDS - BAND    161; K    1; EIG -4.9901917E-03 AU
 TTTTTTTTTTTTTTTTTTTTTTTTTTTTTT PDIG        TELAPSE       36.29 TCPU       34.46
 TTTTTTTTTTTTTTTTTTTTTTTTTTTTTT MOQGAD      TELAPSE       36.30 TCPU       34.46
 TTTTTTTTTTTTTTTTTTTTTTTTTTTTTT SHELLXN     TELAPSE       38.64 TCPU       36.81
 TTTTTTTTTTTTTTTTTTTTTTTTTTTTTT MONMO3      TELAPSE       39.61 TCPU       37.77
 NUMERICALLY INTEGRATED DENSITY    319.9998463769
 TTTTTTTTTTTTTTTTTTTTTTTTTTTTTT NUMDFT      TELAPSE       40.04 TCPU       38.20
 CYC   6 ETOT(AU) -2.057755062483E+03 DETOT -1.79E-04 tst  1.36E-06 PX  1.66E-03
 TTTTTTTTTTTTTTTTTTTTTTTTTTTTTT DIIS        TELAPSE       40.08 TCPU       38.24
 DIIS TEST: 0.47606E-04 AT SCF   CYCLE   6 - DIIS ACTIVE - HISTORY:     6 CYCLES
 TTTTTTTTTTTTTTTTTTTTTTTTTTTTTT FDIK        TELAPSE       40.66 TCPU       38.81
 INSULATING STATE
 TOP OF VALENCE BANDS -    BAND    160; K   10; EIG -2.4623761E-01 AU
 TOP OF VALENCE BANDS -    BAND    160; K    1; EIG -2.4641397E-01 AU
 BOTTOM OF VIRTUAL BANDS - BAND    161; K   16; EIG -1.0057534E-02 AU
 INDIRECT ENERGY BAND GAP:   6.4268 eV
 BOTTOM OF VIRTUAL BANDS - BAND    161; K    1; EIG -4.8865160E-03 AU
 TTTTTTTTTTTTTTTTTTTTTTTTTTTTTT PDIG        TELAPSE       41.01 TCPU       39.16
 TTTTTTTTTTTTTTTTTTTTTTTTTTTTTT MOQGAD      TELAPSE       41.01 TCPU       39.16
 TTTTTTTTTTTTTTTTTTTTTTTTTTTTTT SHELLXN     TELAPSE       43.36 TCPU       41.51
 TTTTTTTTTTTTTTTTTTTTTTTTTTTTTT MONMO3      TELAPSE       44.32 TCPU       42.48
 NUMERICALLY INTEGRATED DENSITY    319.9998463307
 TTTTTTTTTTTTTTTTTTTTTTTTTTTTTT NUMDFT      TELAPSE       44.79 TCPU       42.94
 CYC   7 ETOT(AU) -2.057755072519E+03 DETOT -1.00E-05 tst  2.06E-07 PX  4.88E-04
 TTTTTTTTTTTTTTTTTTTTTTTTTTTTTT DIIS        TELAPSE       44.82 TCPU       42.97
 DIIS TEST: 0.78377E-05 AT SCF   CYCLE   7 - DIIS ACTIVE - HISTORY:     7 CYCLES
 TTTTTTTTTTTTTTTTTTTTTTTTTTTTTT FDIK        TELAPSE       45.42 TCPU       43.56
 INSULATING STATE
 TOP OF VALENCE BANDS -    BAND    160; K   10; EIG -2.4627285E-01 AU
 TOP OF VALENCE BANDS -    BAND    160; K    1; EIG -2.4645170E-01 AU
 BOTTOM OF VIRTUAL BANDS - BAND    161; K   16; EIG -1.0062630E-02 AU
 INDIRECT ENERGY BAND GAP:   6.4276 eV
 BOTTOM OF VIRTUAL BANDS - BAND    161; K    1; EIG -4.9337278E-03 AU
 TTTTTTTTTTTTTTTTTTTTTTTTTTTTTT PDIG        TELAPSE       45.77 TCPU       43.91
 TTTTTTTTTTTTTTTTTTTTTTTTTTTTTT MOQGAD      TELAPSE       45.77 TCPU       43.92
 TTTTTTTTTTTTTTTTTTTTTTTTTTTTTT SHELLXN     TELAPSE       48.12 TCPU       46.26
 TTTTTTTTTTTTTTTTTTTTTTTTTTTTTT MONMO3      TELAPSE       49.08 TCPU       47.22
 NUMERICALLY INTEGRATED DENSITY    319.9998463347
 TTTTTTTTTTTTTTTTTTTTTTTTTTTTTT NUMDFT      TELAPSE       49.58 TCPU       47.73
 CYC   8 ETOT(AU) -2.057755074882E+03 DETOT -2.36E-06 tst  1.57E-08 PX  1.83E-04
 TTTTTTTTTTTTTTTTTTTTTTTTTTTTTT DIIS        TELAPSE       49.62 TCPU       47.76
 DIIS TEST: 0.29562E-06 AT SCF   CYCLE   8 - DIIS ACTIVE - HISTORY:     8 CYCLES
 TTTTTTTTTTTTTTTTTTTTTTTTTTTTTT FDIK        TELAPSE       50.20 TCPU       48.34
 INSULATING STATE
 TOP OF VALENCE BANDS -    BAND    160; K   10; EIG -2.4628323E-01 AU
 TOP OF VALENCE BANDS -    BAND    160; K    1; EIG -2.4646138E-01 AU
 BOTTOM OF VIRTUAL BANDS - BAND    161; K   16; EIG -1.0068390E-02 AU
 INDIRECT ENERGY BAND GAP:   6.4277 eV
 BOTTOM OF VIRTUAL BANDS - BAND    161; K    1; EIG -4.9379601E-03 AU
 TTTTTTTTTTTTTTTTTTTTTTTTTTTTTT PDIG        TELAPSE       50.55 TCPU       48.69
 TTTTTTTTTTTTTTTTTTTTTTTTTTTTTT MOQGAD      TELAPSE       50.55 TCPU       48.69
 TTTTTTTTTTTTTTTTTTTTTTTTTTTTTT SHELLXN     TELAPSE       52.91 TCPU       51.04
 TTTTTTTTTTTTTTTTTTTTTTTTTTTTTT MONMO3      TELAPSE       53.88 TCPU       52.00
 NUMERICALLY INTEGRATED DENSITY    319.9998463350
 TTTTTTTTTTTTTTTTTTTTTTTTTTTTTT NUMDFT      TELAPSE       54.34 TCPU       52.47
 CYC   9 ETOT(AU) -2.057755075138E+03 DETOT -2.56E-07 tst  1.34E-09 PX  4.96E-05
 TTTTTTTTTTTTTTTTTTTTTTTTTTTTTT DIIS        TELAPSE       55.72 TCPU       53.84
 DIIS TEST: 0.69730E-07 AT SCF   CYCLE   9 - DIIS ACTIVE - HISTORY:     9 CYCLES
 TTTTTTTTTTTTTTTTTTTTTTTTTTTTTT FDIK        TELAPSE       56.30 TCPU       54.42
 INSULATING STATE
 TOP OF VALENCE BANDS -    BAND    160; K   10; EIG -2.4628188E-01 AU
 TOP OF VALENCE BANDS -    BAND    160; K    1; EIG -2.4646034E-01 AU
 BOTTOM OF VIRTUAL BANDS - BAND    161; K   16; EIG -1.0073299E-02 AU
 INDIRECT ENERGY BAND GAP:   6.4276 eV
 BOTTOM OF VIRTUAL BANDS - BAND    161; K    1; EIG -4.9354446E-03 AU
 TTTTTTTTTTTTTTTTTTTTTTTTTTTTTT PDIG        TELAPSE       56.65 TCPU       54.77
 TTTTTTTTTTTTTTTTTTTTTTTTTTTTTT MOQGAD      TELAPSE       56.65 TCPU       54.77
 TTTTTTTTTTTTTTTTTTTTTTTTTTTTTT SHELLXN     TELAPSE       59.00 TCPU       57.12
 TTTTTTTTTTTTTTTTTTTTTTTTTTTTTT MONMO3      TELAPSE       59.96 TCPU       58.08
 NUMERICALLY INTEGRATED DENSITY    319.9998463340
 TTTTTTTTTTTTTTTTTTTTTTTTTTTTTT NUMDFT      TELAPSE       60.39 TCPU       58.51
 CYC  10 ETOT(AU) -2.057755075159E+03 DETOT -2.14E-08 tst  9.92E-11 PX  2.55E-05
 TTTTTTTTTTTTTTTTTTTTTTTTTTTTTT DIIS        TELAPSE       60.54 TCPU       58.65
 DIIS TEST: 0.54223E-08 AT SCF   CYCLE  10 - DIIS ACTIVE - HISTORY:    10 CYCLES
 TTTTTTTTTTTTTTTTTTTTTTTTTTTTTT FDIK        TELAPSE       61.11 TCPU       58.92
 INSULATING STATE
 TOP OF VALENCE BANDS -    BAND    160; K   10; EIG -2.4628179E-01 AU
 TOP OF VALENCE BANDS -    BAND    160; K    1; EIG -2.4646021E-01 AU
 BOTTOM OF VIRTUAL BANDS - BAND    161; K   16; EIG -1.0071218E-02 AU
 INDIRECT ENERGY BAND GAP:   6.4276 eV
 BOTTOM OF VIRTUAL BANDS - BAND    161; K    1; EIG -4.9351879E-03 AU
 TTTTTTTTTTTTTTTTTTTTTTTTTTTTTT PDIG        TELAPSE       61.46 TCPU       59.27
 TTTTTTTTTTTTTTTTTTTTTTTTTTTTTT MOQGAD      TELAPSE       61.47 TCPU       59.28
 TTTTTTTTTTTTTTTTTTTTTTTTTTTTTT SHELLXN     TELAPSE       63.82 TCPU       61.62
 TTTTTTTTTTTTTTTTTTTTTTTTTTTTTT MONMO3      TELAPSE       64.78 TCPU       62.58
 NUMERICALLY INTEGRATED DENSITY    319.9998463337
 TTTTTTTTTTTTTTTTTTTTTTTTTTTTTT NUMDFT      TELAPSE       65.12 TCPU       62.93
 CYC  11 ETOT(AU) -2.057755075174E+03 DETOT -1.50E-08 tst  1.14E-11 PX  5.79E-06
 TTTTTTTTTTTTTTTTTTTTTTTTTTTTTT DIIS        TELAPSE       65.16 TCPU       62.96
 DIIS TEST: 0.43048E-09 AT SCF   CYCLE  11 - DIIS ACTIVE - HISTORY:    11 CYCLES
 TTTTTTTTTTTTTTTTTTTTTTTTTTTTTT FDIK        TELAPSE       65.74 TCPU       63.54
 INSULATING STATE
 TOP OF VALENCE BANDS -    BAND    160; K   10; EIG -2.4628139E-01 AU
 TOP OF VALENCE BANDS -    BAND    160; K    1; EIG -2.4645983E-01 AU
 BOTTOM OF VIRTUAL BANDS - BAND    161; K   16; EIG -1.0071224E-02 AU
 INDIRECT ENERGY BAND GAP:   6.4276 eV
 BOTTOM OF VIRTUAL BANDS - BAND    161; K    1; EIG -4.9349690E-03 AU
 TTTTTTTTTTTTTTTTTTTTTTTTTTTTTT PDIG        TELAPSE       66.09 TCPU       63.89
 TTTTTTTTTTTTTTTTTTTTTTTTTTTTTT MOQGAD      TELAPSE       66.09 TCPU       63.89
 TTTTTTTTTTTTTTTTTTTTTTTTTTTTTT SHELLXN     TELAPSE       68.44 TCPU       66.24
 TTTTTTTTTTTTTTTTTTTTTTTTTTTTTT MONMO3      TELAPSE       69.40 TCPU       67.20
 NUMERICALLY INTEGRATED DENSITY    319.9998463339
 TTTTTTTTTTTTTTTTTTTTTTTTTTTTTT NUMDFT      TELAPSE       69.90 TCPU       67.69
 CYC  12 ETOT(AU) -2.057755075172E+03 DETOT  2.02E-09 tst  1.24E-12 PX  1.58E-06
 TTTTTTTTTTTTTTTTTTTTTTTTTTTTTT DIIS        TELAPSE       69.93 TCPU       67.73
 DIIS TEST: 0.37303E-10 AT SCF   CYCLE  12 - DIIS ACTIVE - HISTORY:    12 CYCLES
 TTTTTTTTTTTTTTTTTTTTTTTTTTTTTT FDIK        TELAPSE       70.52 TCPU       68.32
 INSULATING STATE
 TOP OF VALENCE BANDS -    BAND    160; K   10; EIG -2.4628126E-01 AU
 TOP OF VALENCE BANDS -    BAND    160; K    1; EIG -2.4645970E-01 AU
 BOTTOM OF VIRTUAL BANDS - BAND    161; K   16; EIG -1.0071055E-02 AU
 INDIRECT ENERGY BAND GAP:   6.4276 eV
 BOTTOM OF VIRTUAL BANDS - BAND    161; K    1; EIG -4.9347814E-03 AU
 TTTTTTTTTTTTTTTTTTTTTTTTTTTTTT PDIG        TELAPSE       70.87 TCPU       68.67
 TTTTTTTTTTTTTTTTTTTTTTTTTTTTTT MOQGAD      TELAPSE       70.88 TCPU       68.67
 TTTTTTTTTTTTTTTTTTTTTTTTTTTTTT SHELLXN     TELAPSE       73.22 TCPU       71.01
 TTTTTTTTTTTTTTTTTTTTTTTTTTTTTT MONMO3      TELAPSE       74.24 TCPU       72.03
 NUMERICALLY INTEGRATED DENSITY    319.9998463339
 TTTTTTTTTTTTTTTTTTTTTTTTTTTTTT NUMDFT      TELAPSE       74.50 TCPU       72.29
 CYC  13 ETOT(AU) -2.057755075172E+03 DETOT -5.28E-11 tst  1.47E-13 PX  4.48E-07
 TTTTTTTTTTTTTTTTTTTTTTTTTTTTTT DIIS        TELAPSE       74.53 TCPU       72.32
 DIIS TEST: 0.20996E-11 AT SCF   CYCLE  13 - DIIS ACTIVE - HISTORY:    13 CYCLES
 TTTTTTTTTTTTTTTTTTTTTTTTTTTTTT FDIK        TELAPSE       75.12 TCPU       72.90
 INSULATING STATE
[...]
Note: The following floating-point exceptions are signalling: IEEE_UNDERFLOW_FLAG IEEE_DENORMAL
Note: The following floating-point exceptions are signalling: IEEE_UNDERFLOW_FLAG IEEE_DENORMAL
Note: The following floating-point exceptions are signalling: IEEE_UNDERFLOW_FLAG IEEE_DENORMAL
Note: The following floating-point exceptions are signalling: IEEE_UNDERFLOW_FLAG IEEE_DENORMAL
Note: The following floating-point exceptions are signalling: IEEE_UNDERFLOW_FLAG IEEE_DENORMAL
Note: The following floating-point exceptions are signalling: IEEE_UNDERFLOW_FLAG IEEE_DENORMAL
Note: The following floating-point exceptions are signalling: IEEE_UNDERFLOW_FLAG IEEE_DENORMAL
Note: The following floating-point exceptions are signalling: IEEE_UNDERFLOW_FLAG IEEE_DENORMAL
Note: The following floating-point exceptions are signalling: IEEE_UNDERFLOW_FLAG IEEE_DENORMAL
Note: The following floating-point exceptions are signalling: IEEE_UNDERFLOW_FLAG IEEE_DENORMAL
Note: The following floating-point exceptions are signalling: IEEE_UNDERFLOW_FLAG IEEE_DENORMAL
Note: The following floating-point exceptions are signalling: IEEE_UNDERFLOW_FLAG IEEE_DENORMAL
Note: The following floating-point exceptions are signalling: IEEE_UNDERFLOW_FLAG IEEE_DENORMAL
Note: The following floating-point exceptions are signalling: IEEE_UNDERFLOW_FLAG IEEE_DENORMAL
Note: The following floating-point exceptions are signalling: IEEE_UNDERFLOW_FLAG IEEE_DENORMAL
Note: The following floating-point exceptions are signalling: IEEE_UNDERFLOW_FLAG IEEE_DENORMAL
Note: The following floating-point exceptions are signalling: IEEE_UNDERFLOW_FLAG IEEE_DENORMAL
Note: The following floating-point exceptions are signalling: IEEE_UNDERFLOW_FLAG IEEE_DENORMAL
Note: The following floating-point exceptions are signalling: IEEE_UNDERFLOW_FLAG IEEE_DENORMAL
Note: The following floating-point exceptions are signalling: IEEE_UNDERFLOW_FLAG IEEE_DENORMAL
Note: The following floating-point exceptions are signalling: IEEE_UNDERFLOW_FLAG IEEE_DENORMAL
Note: The following floating-point exceptions are signalling: IEEE_UNDERFLOW_FLAG IEEE_DENORMAL
Note: The following floating-point exceptions are signalling: IEEE_UNDERFLOW_FLAG IEEE_DENORMAL
Note: The following floating-point exceptions are signalling: IEEE_UNDERFLOW_FLAG IEEE_DENORMAL
Note: The following floating-point exceptions are signalling: IEEE_UNDERFLOW_FLAG IEEE_DENORMAL
Note: The following floating-point exceptions are signalling: IEEE_UNDERFLOW_FLAG IEEE_DENORMAL
Note: The following floating-point exceptions are signalling: IEEE_UNDERFLOW_FLAG IEEE_DENORMAL
Note: The following floating-point exceptions are signalling: IEEE_UNDERFLOW_FLAG IEEE_DENORMAL
Note: The following floating-point exceptions are signalling: IEEE_UNDERFLOW_FLAG IEEE_DENORMAL
Note: The following floating-point exceptions are signalling: IEEE_UNDERFLOW_FLAG IEEE_DENORMAL
Note: The following floating-point exceptions are signalling: IEEE_UNDERFLOW_FLAG IEEE_DENORMAL
Note: The following floating-point exceptions are signalling: IEEE_UNDERFLOW_FLAG IEEE_DENORMAL
Note: The following floating-point exceptions are signalling: IEEE_UNDERFLOW_FLAG IEEE_DENORMAL
Note: The following floating-point exceptions are signalling: IEEE_UNDERFLOW_FLAG IEEE_DENORMAL
Note: The following floating-point exceptions are signalling: IEEE_UNDERFLOW_FLAG IEEE_DENORMAL
Note: The following floating-point exceptions are signalling: IEEE_UNDERFLOW_FLAG IEEE_DENORMAL
Note: The following floating-point exceptions are signalling: IEEE_UNDERFLOW_FLAG IEEE_DENORMAL
Note: The following floating-point exceptions are signalling: IEEE_UNDERFLOW_FLAG IEEE_DENORMAL
Note: The following floating-point exceptions are signalling: IEEE_UNDERFLOW_FLAG IEEE_DENORMAL
Note: The following floating-point exceptions are signalling: IEEE_UNDERFLOW_FLAG IEEE_DENORMAL
Note: The following floating-point exceptions are signalling: IEEE_UNDERFLOW_FLAG IEEE_DENORMAL
Note: The following floating-point exceptions are signalling: IEEE_UNDERFLOW_FLAG IEEE_DENORMAL
Note: The following floating-point exceptions are signalling: IEEE_UNDERFLOW_FLAG IEEE_DENORMAL
Note: The following floating-point exceptions are signalling: IEEE_UNDERFLOW_FLAG IEEE_DENORMAL
Note: The following floating-point exceptions are signalling: IEEE_UNDERFLOW_FLAG IEEE_DENORMAL
Note: The following floating-point exceptions are signalling: IEEE_UNDERFLOW_FLAG IEEE_DENORMAL
Note: The following floating-point exceptions are signalling: IEEE_UNDERFLOW_FLAG IEEE_DENORMAL
Note: The following floating-point exceptions are signalling: IEEE_UNDERFLOW_FLAG IEEE_DENORMAL
Note: The following floating-point exceptions are signalling: IEEE_UNDERFLOW_FLAG IEEE_DENORMAL
Note: The following floating-point exceptions are signalling: IEEE_UNDERFLOW_FLAG IEEE_DENORMAL
Note: The following floating-point exceptions are signalling: IEEE_UNDERFLOW_FLAG IEEE_DENORMAL
Note: The following floating-point exceptions are signalling: IEEE_UNDERFLOW_FLAG IEEE_DENORMAL
Note: The following floating-point exceptions are signalling: IEEE_UNDERFLOW_FLAG IEEE_DENORMAL
Note: The following floating-point exceptions are signalling: IEEE_UNDERFLOW_FLAG IEEE_DENORMAL
Note: The following floating-point exceptions are signalling: IEEE_UNDERFLOW_FLAG IEEE_DENORMAL
Note: The following floating-point exceptions are signalling: IEEE_UNDERFLOW_FLAG IEEE_DENORMAL
Note: The following floating-point exceptions are signalling: IEEE_UNDERFLOW_FLAG IEEE_DENORMAL
Note: The following floating-point exceptions are signalling: IEEE_UNDERFLOW_FLAG IEEE_DENORMAL
Note: The following floating-point exceptions are signalling: IEEE_UNDERFLOW_FLAG IEEE_DENORMAL
Note: The following floating-point exceptions are signalling: IEEE_UNDERFLOW_FLAG IEEE_DENORMAL
Note: The following floating-point exceptions are signalling: IEEE_UNDERFLOW_FLAG IEEE_DENORMAL
Note: The following floating-point exceptions are signalling: IEEE_UNDERFLOW_FLAG IEEE_DENORMAL
Note: The following floating-point exceptions are signalling: IEEE_UNDERFLOW_FLAG IEEE_DENORMAL
Note: The following floating-point exceptions are signalling: IEEE_UNDERFLOW_FLAG IEEE_DENORMAL
Note: The following floating-point exceptions are signalling: IEEE_UNDERFLOW_FLAG IEEE_DENORMAL
Note: The following floating-point exceptions are signalling: IEEE_UNDERFLOW_FLAG IEEE_DENORMAL
Note: The following floating-point exceptions are signalling: IEEE_UNDERFLOW_FLAG IEEE_DENORMAL
Note: The following floating-point exceptions are signalling: IEEE_UNDERFLOW_FLAG IEEE_DENORMAL
Note: The following floating-point exceptions are signalling: IEEE_UNDERFLOW_FLAG IEEE_DENORMAL
Note: The following floating-point exceptions are signalling: IEEE_UNDERFLOW_FLAG IEEE_DENORMAL
Note: The following floating-point exceptions are signalling: IEEE_UNDERFLOW_FLAG IEEE_DENORMAL
Note: The following floating-point exceptions are signalling: IEEE_UNDERFLOW_FLAG IEEE_DENORMAL
Note: The following floating-point exceptions are signalling: IEEE_UNDERFLOW_FLAG IEEE_DENORMAL
Note: The following floating-point exceptions are signalling: IEEE_UNDERFLOW_FLAG IEEE_DENORMAL
Note: The following floating-point exceptions are signalling: IEEE_UNDERFLOW_FLAG IEEE_DENORMAL
Note: The following floating-point exceptions are signalling: IEEE_UNDERFLOW_FLAG IEEE_DENORMAL
Note: The following floating-point exceptions are signalling: IEEE_UNDERFLOW_FLAG IEEE_DENORMAL
Note: The following floating-point exceptions are signalling: IEEE_UNDERFLOW_FLAG IEEE_DENORMAL
Note: The following floating-point exceptions are signalling: IEEE_UNDERFLOW_FLAG IEEE_DENORMAL
Note: The following floating-point exceptions are signalling: IEEE_UNDERFLOW_FLAG IEEE_DENORMAL
Note: The following floating-point exceptions are signalling: IEEE_UNDERFLOW_FLAG IEEE_DENORMAL
Note: The following floating-point exceptions are signalling: IEEE_UNDERFLOW_FLAG IEEE_DENORMAL
Note: The following floating-point exceptions are signalling: IEEE_UNDERFLOW_FLAG IEEE_DENORMAL
Note: The following floating-point exceptions are signalling: IEEE_UNDERFLOW_FLAG IEEE_DENORMAL
Note: The following floating-point exceptions are signalling: IEEE_UNDERFLOW_FLAG IEEE_DENORMAL
Note: The following floating-point exceptions are signalling: IEEE_UNDERFLOW_FLAG IEEE_DENORMAL
Note: The following floating-point exceptions are signalling: IEEE_UNDERFLOW_FLAG IEEE_DENORMAL
Note: The following floating-point exceptions are signalling: IEEE_UNDERFLOW_FLAG IEEE_DENORMAL
Note: The following floating-point exceptions are signalling: IEEE_UNDERFLOW_FLAG IEEE_DENORMAL
Note: The following floating-point exceptions are signalling: IEEE_UNDERFLOW_FLAG IEEE_DENORMAL
Note: The following floating-point exceptions are signalling: IEEE_UNDERFLOW_FLAG IEEE_DENORMAL
Note: The following floating-point exceptions are signalling: IEEE_UNDERFLOW_FLAG IEEE_DENORMAL
Note: The following floating-point exceptions are signalling: IEEE_UNDERFLOW_FLAG IEEE_DENORMAL
Note: The following floating-point exceptions are signalling: IEEE_UNDERFLOW_FLAG IEEE_DENORMAL
Note: The following floating-point exceptions are signalling: IEEE_UNDERFLOW_FLAG IEEE_DENORMAL
Note: The following floating-point exceptions are signalling: IEEE_UNDERFLOW_FLAG IEEE_DENORMAL
Note: The following floating-point exceptions are signalling: IEEE_UNDERFLOW_FLAG IEEE_DENORMAL
Note: The following floating-point exceptions are signalling: IEEE_UNDERFLOW_FLAG IEEE_DENORMAL
Note: The following floating-point exceptions are signalling: IEEE_UNDERFLOW_FLAG IEEE_DENORMAL
Note: The following floating-point exceptions are signalling: IEEE_UNDERFLOW_FLAG IEEE_DENORMAL
Note: The following floating-point exceptions are signalling: IEEE_UNDERFLOW_FLAG IEEE_DENORMAL
Note: The following floating-point exceptions are signalling: IEEE_UNDERFLOW_FLAG IEEE_DENORMAL
Note: The following floating-point exceptions are signalling: IEEE_UNDERFLOW_FLAG IEEE_DENORMAL
Note: The following floating-point exceptions are signalling: IEEE_UNDERFLOW_FLAG IEEE_DENORMAL
Note: The following floating-point exceptions are signalling: IEEE_UNDERFLOW_FLAG IEEE_DENORMAL
Note: The following floating-point exceptions are signalling: IEEE_UNDERFLOW_FLAG IEEE_DENORMAL
Note: The following floating-point exceptions are signalling: IEEE_UNDERFLOW_FLAG IEEE_DENORMAL
Note: The following floating-point exceptions are signalling: IEEE_UNDERFLOW_FLAG IEEE_DENORMAL
Note: The following floating-point exceptions are signalling: IEEE_UNDERFLOW_FLAG IEEE_DENORMAL
Note: The following floating-point exceptions are signalling: IEEE_UNDERFLOW_FLAG IEEE_DENORMAL
Note: The following floating-point exceptions are signalling: IEEE_UNDERFLOW_FLAG IEEE_DENORMAL
Note: The following floating-point exceptions are signalling: IEEE_UNDERFLOW_FLAG IEEE_DENORMAL
Note: The following floating-point exceptions are signalling: IEEE_UNDERFLOW_FLAG IEEE_DENORMAL
Note: The following floating-point exceptions are signalling: IEEE_UNDERFLOW_FLAG IEEE_DENORMAL
Note: The following floating-point exceptions are signalling: IEEE_UNDERFLOW_FLAG IEEE_DENORMAL
Note: The following floating-point exceptions are signalling: IEEE_UNDERFLOW_FLAG IEEE_DENORMAL
Note: The following floating-point exceptions are signalling: IEEE_UNDERFLOW_FLAG IEEE_DENORMAL
Note: The following floating-point exceptions are signalling: IEEE_UNDERFLOW_FLAG IEEE_DENORMAL
Note: The following floating-point exceptions are signalling: IEEE_UNDERFLOW_FLAG IEEE_DENORMAL
Note: The following floating-point exceptions are signalling: IEEE_UNDERFLOW_FLAG IEEE_DENORMAL
Note: The following floating-point exceptions are signalling: IEEE_UNDERFLOW_FLAG IEEE_DENORMAL
Note: The following floating-point exceptions are signalling: IEEE_UNDERFLOW_FLAG IEEE_DENORMAL
Note: The following floating-point exceptions are signalling: IEEE_UNDERFLOW_FLAG IEEE_DENORMAL
Note: The following floating-point exceptions are signalling: IEEE_UNDERFLOW_FLAG IEEE_DENORMAL
Note: The following floating-point exceptions are signalling: IEEE_UNDERFLOW_FLAG IEEE_DENORMAL
Note: The following floating-point exceptions are signalling: IEEE_UNDERFLOW_FLAG IEEE_DENORMAL
Note: The following floating-point exceptions are signalling: IEEE_UNDERFLOW_FLAG IEEE_DENORMAL
Note: The following floating-point exceptions are signalling: IEEE_UNDERFLOW_FLAG IEEE_DENORMAL
Note: The following floating-point exceptions are signalling: IEEE_UNDERFLOW_FLAG IEEE_DENORMAL
Note: The following floating-point exceptions are signalling: IEEE_UNDERFLOW_FLAG IEEE_DENORMAL
Note: The following floating-point exceptions are signalling: IEEE_UNDERFLOW_FLAG IEEE_DENORMAL
Note: The following floating-point exceptions are signalling: IEEE_UNDERFLOW_FLAG IEEE_DENORMAL
Note: The following floating-point exceptions are signalling: IEEE_UNDERFLOW_FLAG IEEE_DENORMAL
Note: The following floating-point exceptions are signalling: IEEE_UNDERFLOW_FLAG IEEE_DENORMAL
Note: The following floating-point exceptions are signalling: IEEE_UNDERFLOW_FLAG IEEE_DENORMAL
Note: The following floating-point exceptions are signalling: IEEE_UNDERFLOW_FLAG IEEE_DENORMAL
Note: The following floating-point exceptions are signalling: IEEE_UNDERFLOW_FLAG IEEE_DENORMAL
Note: The following floating-point exceptions are signalling: IEEE_UNDERFLOW_FLAG IEEE_DENORMAL
Note: The following floating-point exceptions are signalling: IEEE_UNDERFLOW_FLAG IEEE_DENORMAL
Note: The following floating-point exceptions are signalling: IEEE_UNDERFLOW_FLAG IEEE_DENORMAL
Note: The following floating-point exceptions are signalling: IEEE_UNDERFLOW_FLAG IEEE_DENORMAL
Note: The following floating-point exceptions are signalling: IEEE_UNDERFLOW_FLAG IEEE_DENORMAL
Note: The following floating-point exceptions are signalling: IEEE_UNDERFLOW_FLAG IEEE_DENORMAL
Note: The following floating-point exceptions are signalling: IEEE_UNDERFLOW_FLAG IEEE_DENORMAL
Note: The following floating-point exceptions are signalling: IEEE_UNDERFLOW_FLAG IEEE_DENORMAL
Note: The following floating-point exceptions are signalling: IEEE_UNDERFLOW_FLAG IEEE_DENORMAL
Note: The following floating-point exceptions are signalling: IEEE_UNDERFLOW_FLAG IEEE_DENORMAL
Note: The following floating-point exceptions are signalling: IEEE_UNDERFLOW_FLAG IEEE_DENORMAL
Note: The following floating-point exceptions are signalling: IEEE_UNDERFLOW_FLAG IEEE_DENORMAL
Note: The following floating-point exceptions are signalling: IEEE_UNDERFLOW_FLAG IEEE_DENORMAL
Note: The following floating-point exceptions are signalling: IEEE_UNDERFLOW_FLAG IEEE_DENORMAL
Note: The following floating-point exceptions are signalling: IEEE_UNDERFLOW_FLAG IEEE_DENORMAL
Note: The following floating-point exceptions are signalling: IEEE_UNDERFLOW_FLAG IEEE_DENORMAL
Note: The following floating-point exceptions are signalling: IEEE_UNDERFLOW_FLAG IEEE_DENORMAL
Note: The following floating-point exceptions are signalling: IEEE_UNDERFLOW_FLAG IEEE_DENORMAL
Note: The following floating-point exceptions are signalling: IEEE_UNDERFLOW_FLAG IEEE_DENORMAL
Note: The following floating-point exceptions are signalling: IEEE_UNDERFLOW_FLAG IEEE_DENORMAL
Note: The following floating-point exceptions are signalling: IEEE_UNDERFLOW_FLAG IEEE_DENORMAL
Note: The following floating-point exceptions are signalling: IEEE_UNDERFLOW_FLAG IEEE_DENORMAL
Note: The following floating-point exceptions are signalling: IEEE_UNDERFLOW_FLAG IEEE_DENORMAL
Note: The following floating-point exceptions are signalling: IEEE_UNDERFLOW_FLAG IEEE_DENORMAL
Note: The following floating-point exceptions are signalling: IEEE_UNDERFLOW_FLAG IEEE_DENORMAL
Note: The following floating-point exceptions are signalling: IEEE_UNDERFLOW_FLAG IEEE_DENORMAL
Note: The following floating-point exceptions are signalling: IEEE_UNDERFLOW_FLAG IEEE_DENORMAL
Note: The following floating-point exceptions are signalling: IEEE_UNDERFLOW_FLAG IEEE_DENORMAL
Note: The following floating-point exceptions are signalling: IEEE_UNDERFLOW_FLAG IEEE_DENORMAL
Note: The following floating-point exceptions are signalling: IEEE_UNDERFLOW_FLAG IEEE_DENORMAL
Note: The following floating-point exceptions are signalling: IEEE_UNDERFLOW_FLAG IEEE_DENORMAL
Note: The following floating-point exceptions are signalling: IEEE_UNDERFLOW_FLAG IEEE_DENORMAL
Note: The following floating-point exceptions are signalling: IEEE_UNDERFLOW_FLAG IEEE_DENORMAL
Note: The following floating-point exceptions are signalling: IEEE_UNDERFLOW_FLAG IEEE_DENORMAL
Note: The following floating-point exceptions are signalling: IEEE_UNDERFLOW_FLAG IEEE_DENORMAL
Note: The following floating-point exceptions are signalling: IEEE_UNDERFLOW_FLAG IEEE_DENORMAL
Note: The following floating-point exceptions are signalling: IEEE_UNDERFLOW_FLAG IEEE_DENORMAL
Note: The following floating-point exceptions are signalling: IEEE_UNDERFLOW_FLAG IEEE_DENORMAL
Note: The following floating-point exceptions are signalling: IEEE_UNDERFLOW_FLAG IEEE_DENORMAL
Note: The following floating-point exceptions are signalling: IEEE_UNDERFLOW_FLAG IEEE_DENORMAL
Note: The following floating-point exceptions are signalling: IEEE_UNDERFLOW_FLAG IEEE_DENORMAL
Note: The following floating-point exceptions are signalling: IEEE_UNDERFLOW_FLAG IEEE_DENORMAL
Note: The following floating-point exceptions are signalling: IEEE_UNDERFLOW_FLAG IEEE_DENORMAL
Note: The following floating-point exceptions are signalling: IEEE_UNDERFLOW_FLAG IEEE_DENORMAL
Note: The following floating-point exceptions are signalling: IEEE_UNDERFLOW_FLAG IEEE_DENORMAL
Note: The following floating-point exceptions are signalling: IEEE_UNDERFLOW_FLAG IEEE_DENORMAL
Note: The following floating-point exceptions are signalling: IEEE_UNDERFLOW_FLAG IEEE_DENORMAL
Note: The following floating-point exceptions are signalling: IEEE_UNDERFLOW_FLAG IEEE_DENORMAL
Note: The following floating-point exceptions are signalling: IEEE_UNDERFLOW_FLAG IEEE_DENORMAL
Note: The following floating-point exceptions are signalling: IEEE_UNDERFLOW_FLAG IEEE_DENORMAL
Note: The following floating-point exceptions are signalling: IEEE_UNDERFLOW_FLAG IEEE_DENORMAL
Note: The following floating-point exceptions are signalling: IEEE_UNDERFLOW_FLAG IEEE_DENORMAL
Note: The following floating-point exceptions are signalling: IEEE_UNDERFLOW_FLAG IEEE_DENORMAL
Note: The following floating-point exceptions are signalling: IEEE_UNDERFLOW_FLAG IEEE_DENORMAL
Note: The following floating-point exceptions are signalling: IEEE_UNDERFLOW_FLAG IEEE_DENORMAL
Note: The following floating-point exceptions are signalling: IEEE_UNDERFLOW_FLAG IEEE_DENORMAL
Note: The following floating-point exceptions are signalling: IEEE_UNDERFLOW_FLAG IEEE_DENORMAL
Note: The following floating-point exceptions are signalling: IEEE_UNDERFLOW_FLAG IEEE_DENORMAL
Note: The following floating-point exceptions are signalling: IEEE_UNDERFLOW_FLAG IEEE_DENORMAL
Note: The following floating-point exceptions are signalling: IEEE_UNDERFLOW_FLAG IEEE_DENORMAL
Note: The following floating-point exceptions are signalling: IEEE_UNDERFLOW_FLAG IEEE_DENORMAL
Note: The following floating-point exceptions are signalling: IEEE_UNDERFLOW_FLAG IEEE_DENORMAL
Note: The following floating-point exceptions are signalling: IEEE_UNDERFLOW_FLAG IEEE_DENORMAL
Note: The following floating-point exceptions are signalling: IEEE_UNDERFLOW_FLAG IEEE_DENORMAL
Note: The following floating-point exceptions are signalling: IEEE_UNDERFLOW_FLAG IEEE_DENORMAL
Note: The following floating-point exceptions are signalling: IEEE_UNDERFLOW_FLAG IEEE_DENORMAL
Note: The following floating-point exceptions are signalling: IEEE_UNDERFLOW_FLAG IEEE_DENORMAL
Note: The following floating-point exceptions are signalling: IEEE_UNDERFLOW_FLAG IEEE_DENORMAL
Note: The following floating-point exceptions are signalling: IEEE_UNDERFLOW_FLAG IEEE_DENORMAL
Note: The following floating-point exceptions are signalling: IEEE_UNDERFLOW_FLAG IEEE_DENORMAL
Note: The following floating-point exceptions are signalling: IEEE_UNDERFLOW_FLAG IEEE_DENORMAL
