Lmod has detected the following error: The following module(s) are unknown:
"epcc-job-env"

Please check the spelling or version number. Also try "module spider ..."
It is also possible your cache file is out-of-date; it may help to try:
  $ module --ignore-cache load "epcc-job-env"

Also make sure that all modulefiles written in TCL start with the string
#%Module




Warning: You have enabled access to software packages installed
by external parties on ARCHER2 or those that are not fully-supported.
The ARCHER2 CSE service does not test these packages. The service desk
will make reasonable efforts to assist with questions on the use of
these packages but some issues may not be able to be resolved by the
service and they may direct you to seek help from external parties.


         512 PROCESSORS WORKING

         
 *******************************************************************************
 *                                                                             *
 *                               CRYSTAL17                                     *
 *                      public : 1.0.2 - March 1st, 2018 STFC/Archer2 build    *
 *                       HTTP://WWW.CRYSTAL.UNITO.IT                           *
 *                                                                             *
 *                              MAIN AUTHORS                                   *
 *                                                                             *
 *  R. DOVESI(1,11), V.R. SAUNDERS(2), C. ROETTI(1,11), R. ORLANDO(1,11),      *
 *  C.M. ZICOVICH-WILSON(1,3), F. PASCALE(4), B. CIVALLERI(1,11),              *
 *  K. DOLL(5), N.M. HARRISON(2,6), I.J. BUSH(7), Ph. D'ARCO(8),               *
 *  M. LLUNELL(9), M. CAUSA'(10), Y. NOEL(8), L. MASCHIO(1,11), A. ERBA(1,11)  *
 *  M. RE'RAT(14), S. CASASSA(1,11)                                            *
 *                                                                             *
 *        CONTRIBUTIONS TO THE CODE HAVE ALSO BEEN GIVEN BY                    *
 *                                                                             *
 *  M. FERRABONE(1,11), M. DE LA PIERRE(1,11), M. FERRERO(1,11),               *
 *  J. BAIMA(1,11), E. ALBANESE(1,11), M.F. PEINTINGER(12), R. BAST(13),       *
 *  B. KIRTMAN(15), V. LACIVITA(1,11), R. DEMICHELIS(1,16)                     *
 *  G. BRANDEBURG(17), S. SALUSTRO(1,11), G. SANSONE(1,11)                     *
 *  M.T. RUGGIERO(18)                                                          *
 *                                                                             *
 * (1) THEORETICAL CHEMISTRY GROUP - UNIVERSITA' DI TORINO - TORINO (ITALY)    *
 * (2) COMPUTATIONAL SCIENCE & ENGINEERING DEPARTMENT - STFC DARESBURY (UK)    *
 * (3) UNIVERSIDAD AUTONOMA DEL ESTADO DE MORELOS - CUERNAVACA (MEXICO)        *
 * (4) UNIVERSITE' DE LORRAINE - NANCY (FRANCE)                                *
 * (5) UNIVERSITAET STUTTGART- STUTTGART (GERMANY)                             *
 * (6) IMPERIAL COLLEGE - LONDON (UK)                                          *
 * (7) OXFORD E-RESEARCH CENTRE - OXFORD (UK)                                  *
 * (8) UPMC - SORBONNE UNIVERSITES - PARIS (FRANCE)                            *
 * (9) UNIVERSIDAD DE BARCELONA - BARCELONA (SPAIN)                            *
 *(10) UNIVERSITA' DI NAPOLI "FEDERICO II" - NAPOLI (ITALY)                    *
 *(11) NIS - NANOSTRUCTURED INTERFACES AND SURFACES - TORINO (ITALY)           *
 *(12) MPI FUER CHEMISCHE ENERGIEKONVERSION - MUELHEIM AN DER RUHR (GERMANY)   *
 *(13) UNIVERSITY OF TROMSO - TROMSO (NORWAY)                                  *
 *(14) UNIVERSITE' DE PAU ET DES PAYS DE L'ADOUR - PAU (FRANCE)                *
 *(15) UNIVERSITY OF CALIFORNIA SANTA BARBARA - SANTA BARBARA (USA)            *
 *(16) CURTIN UNIVERSITY - PERTH (AUSTRALIA)                                   *
 *(17) UNIVERSITY COLLEGE LONDON - LONDON (UK)                                 *
 *(18) CAMBRIDGE UNIVERSITY - CAMBRIDGE (UK)                                   *
 *                                                                             *
 *******************************************************************************
 EEEEEEEEEE STARTING  DATE 04 03 2022 TIME 23:36:23.3
 F1 vol step2 freq - PBEh-3c                                                     

 GEOMETRY INPUT FROM EXTERNAL FILE (FORTRAN UNIT 34)
 3D - CRYSTAL 

 *******************************************************************************
 LATTICE PARAMETERS  (ANGSTROMS AND DEGREES) - PRIMITIVE CELL
       A          B          C        ALPHA      BETA     GAMMA        VOLUME
    7.18337    9.32907   12.72506    90.00000 116.52773  90.00000    762.979584

 NUMBER OF IRREDUCIBLE ATOMS IN THE CELL:   20

 CARTESIAN COORDINATES (ANGSTROM) - IRREDUCIBLE ATOMS AND SYMMETRY RELATED

 AT.IRR.  AT  AT.N.          X                   Y                   Z
     1     1     8    2.776767796136E+00 -6.712025440840E-01  2.421799277163E+00
     1     2     8    1.574782171217E+00  3.993334742843E+00  3.263322183238E+00
     1     3     8   -2.776767796136E+00  6.712025440840E-01 -2.421799277163E+00
     1     4     8   -1.574782171217E+00 -3.993334742843E+00 -3.263322183238E+00
     5     5     8    7.808779873130E-01  4.666239873426E+00 -2.255015879604E+00
     5     6     8    2.050933116701E+00  1.702586499000E-03 -3.442580493116E+00
     5     7     8   -7.808779873130E-01 -4.666239873426E+00  2.255015879604E+00
     5     8     8   -2.050933116701E+00 -1.702586499000E-03  3.442580493116E+00
     9     9     7    2.962939291770E+00 -4.254202703306E+00 -1.822668105542E+00
     9    10     7   -1.311281877570E-01  4.103345836200E-01 -3.874928267177E+00
     9    11     7   -2.962939291770E+00  4.254202703306E+00  1.822668105542E+00
     9    12     7    1.311281877570E-01 -4.103345836200E-01  3.874928267177E+00
    13    13     6    2.867689586930E+00 -3.376399837185E+00 -7.277004776580E-01
    13    14     6   -3.587848291600E-02  1.288137449741E+00 -4.969895895062E+00
    13    15     6   -2.867689586930E+00  3.376399837185E+00  7.277004776580E-01
    13    16     6    3.587848291600E-02 -1.288137449741E+00  4.969895895062E+00
    17    17     6    1.800878383683E+00 -3.347827566142E+00  1.642730734480E-01
    17    18     6    1.030932720331E+00  1.316709720784E+00 -5.861869446168E+00
    17    19     6   -1.800878383683E+00  3.347827566142E+00 -1.642730734480E-01
    17    20     6   -1.030932720331E+00 -1.316709720784E+00  5.861869446168E+00
    21    21     6    1.790810673278E+00 -2.441230547577E+00  1.214004216279E+00
    21    22     6    2.560739294076E+00  2.223306739349E+00  4.471117244122E+00
    21    23     6   -1.790810673278E+00  2.441230547577E+00 -1.214004216279E+00
    21    24     6   -2.560739294076E+00 -2.223306739349E+00 -4.471117244122E+00
    25    25     6    2.846051544741E+00 -1.554278502842E+00  1.405230959834E+00
    25    26     6    1.505498422613E+00  3.110258784084E+00  4.279890500566E+00
    25    27     6   -2.846051544741E+00  1.554278502842E+00 -1.405230959834E+00
    25    28     6   -1.505498422613E+00 -3.110258784084E+00 -4.279890500566E+00
    29    29     6   -3.256023452420E+00 -1.605076678311E+00  5.424102419620E-01
    29    30     6    4.242123484070E-01  3.059460608615E+00  5.155186130758E+00
    29    31     6    3.256023452420E+00  1.605076678311E+00 -5.424102419620E-01
    29    32     6   -4.242123484070E-01 -3.059460608615E+00 -5.155186130758E+00
    33    33     6   -3.252105276764E+00 -2.502658414736E+00 -5.092881833720E-01
    33    34     6   -1.099444690589E+00  2.161878872191E+00 -5.175833277029E+00
    33    35     6    3.252105276764E+00  2.502658414736E+00  5.092881833720E-01
    33    36     6    1.099444690589E+00 -2.161878872191E+00  5.175833277029E+00
    37    37     6    1.972240157023E+00  4.518470560395E+00 -2.532663025701E+00
    37    38     6    8.595709469900E-01 -1.460667265310E-01 -3.164933347019E+00
    37    39     6   -1.972240157023E+00 -4.518470560395E+00  2.532663025701E+00
    37    40     6   -8.595709469900E-01  1.460667265310E-01  3.164933347019E+00
    41    41     6    2.412355444604E+00  3.680616004210E+00 -3.699989239323E+00
    41    42     6    4.194556594100E-01 -9.839212827170E-01 -1.997607133397E+00
    41    43     6   -2.412355444604E+00 -3.680616004210E+00  3.699989239323E+00
    41    44     6   -4.194556594100E-01  9.839212827170E-01  1.997607133397E+00
    45    45     1    9.700651246010E-01 -4.026088137615E+00  6.129115198200E-02
    45    46     1    1.861745979412E+00  6.384491493110E-01 -5.758887524702E+00
    45    47     1   -9.700651246010E-01  4.026088137615E+00 -6.129115198200E-02
    45    48     1   -1.861745979412E+00 -6.384491493110E-01  5.758887524702E+00
    49    49     1    9.478063723520E-01 -2.437002710894E+00  1.893620428725E+00
    49    50     1    3.403743595001E+00  2.227534576032E+00  3.791501031676E+00
    49    51     1   -9.478063723520E-01  2.437002710894E+00 -1.893620428725E+00
    49    52     1   -3.403743595001E+00 -2.227534576032E+00 -3.791501031676E+00
    53    53     1   -2.419685041987E+00 -9.294714921460E-01  6.630021680160E-01
    53    54     1   -4.121260620270E-01  3.735065794780E+00  5.034594204704E+00
    53    55     1    2.419685041987E+00  9.294714921460E-01 -6.630021680160E-01
    53    56     1    4.121260620270E-01 -3.735065794780E+00 -5.034594204704E+00
    57    57     1   -2.401551543094E+00 -2.523666581642E+00 -1.178931406952E+00
    57    58     1   -1.949998424260E+00  2.140870705284E+00 -4.506190053449E+00
    57    59     1    2.401551543094E+00  2.523666581642E+00  1.178931406952E+00
    57    60     1    1.949998424260E+00 -2.140870705284E+00  4.506190053449E+00
    61    61     1   -3.525545588646E+00 -3.041491435260E-01  2.672925729806E+00
    61    62     1    6.937344846320E-01  4.360388143400E+00  3.024670642913E+00
    61    63     1    3.525545588646E+00  3.041491435260E-01 -2.672925729806E+00
    61    64     1   -6.937344846320E-01 -4.360388143400E+00 -3.024670642913E+00
    65    65     1   -3.280746576683E+00 -4.395522719271E+00 -2.161804169016E+00
    65    66     1   -1.070803390671E+00  2.690145676550E-01 -3.523317291385E+00
    65    67     1    3.280746576683E+00  4.395522719271E+00  2.161804169016E+00
    65    68     1    1.070803390671E+00 -2.690145676550E-01  3.523317291385E+00
    69    69     1    1.774219963725E+00  3.869166237593E+00 -4.561853865093E+00
    69    70     1    1.057591140288E+00 -7.953710493330E-01 -1.135742507626E+00
    69    71     1   -1.774219963725E+00 -3.869166237593E+00  4.561853865093E+00
    69    72     1   -1.057591140288E+00  7.953710493330E-01  1.135742507626E+00
    73    73     1    3.450076927280E+00  3.847965491394E+00 -3.981607350255E+00
    73    74     1   -6.182658232670E-01 -8.165717955320E-01 -1.715989022464E+00
    73    75     1   -3.450076927280E+00 -3.847965491394E+00  3.981607350255E+00
    73    76     1    6.182658232670E-01  8.165717955320E-01  1.715989022464E+00
    77    77     1    2.294368819488E+00  2.624870423138E+00 -3.458737233785E+00
    77    78     1    5.374422845260E-01 -2.039666863788E+00 -2.238859138935E+00
    77    79     1   -2.294368819488E+00 -2.624870423138E+00  3.458737233785E+00
    77    80     1   -5.374422845260E-01  2.039666863788E+00  2.238859138935E+00

 SPACE  GROUP  N.                     :   14
 NUMBER OF SYMMETRY OPERATORS         :    4
 *******************************************************************************
 LATTICE PARAMETERS (ANGSTROMS AND DEGREES) - BOHR = 0.5291772083 ANGSTROM
 PRIMITIVE CELL - CENTRING CODE 1/0 VOLUME=   762.979584 - DENSITY  1.315 g/cm^3
         A              B              C           ALPHA      BETA       GAMMA 
     7.18337190     9.32907457    12.72505537    90.000000 116.527731  90.000000
 *******************************************************************************
 ATOMS IN THE ASYMMETRIC UNIT   20 - ATOMS IN THE UNIT CELL:   80
     ATOM                 X/A                 Y/B                 Z/C    
 *******************************************************************************
      1 T   8 O    -4.454008939711E-01 -7.194738757534E-02  2.131353024602E-01
      2 F   8 O     4.454008939722E-01  4.280526124249E-01  2.868646975416E-01
      3 F   8 O     4.454008939711E-01  7.194738757534E-02 -2.131353024602E-01
      4 F   8 O    -4.454008939722E-01 -4.280526124249E-01 -2.868646975416E-01
      5 T   8 O    -4.735949924255E-02 -4.998174967423E-01 -1.979437062278E-01
      6 F   8 O     4.735949924102E-02  1.825032574799E-04 -3.020562937740E-01
      7 F   8 O     4.735949924255E-02  4.998174967423E-01  1.979437062278E-01
      8 F   8 O    -4.735949924102E-02 -1.825032574799E-04  3.020562937740E-01
      9 T   7 N     2.866090759940E-01 -4.560155103949E-01 -1.596368506521E-01
     10 F   7 N    -2.866090759956E-01  4.398448960524E-02 -3.403631493496E-01
     11 F   7 N    -2.866090759940E-01  4.560155103949E-01  1.596368506521E-01
     12 F   7 N     2.866090759956E-01 -4.398448960524E-02  3.403631493496E-01
     13 T   6 C     3.491643862334E-01 -3.619222689729E-01 -6.347805594135E-02
     14 F   6 C    -3.491643862350E-01  1.380777310272E-01 -4.365219440604E-01
     15 F   6 C    -3.491643862334E-01  3.619222689729E-01  6.347805594135E-02
     16 F   6 C     3.491643862350E-01 -1.380777310272E-01  4.365219440604E-01
     17 T   6 C     2.622938511694E-01 -3.588595567160E-01  1.470314456161E-02
     18 F   6 C    -2.622938511709E-01  1.411404432841E-01  4.852968554366E-01
     19 F   6 C    -2.622938511694E-01  3.588595567160E-01 -1.470314456161E-02
     20 F   6 C     2.622938511709E-01 -1.411404432841E-01 -4.852968554366E-01
     21 T   6 C     3.335850144529E-01 -2.616798191773E-01  1.069017161273E-01
     22 F   6 C    -3.335850144517E-01  2.383201808228E-01  3.930982838744E-01
     23 F   6 C    -3.335850144529E-01  2.616798191773E-01 -1.069017161273E-01
     24 F   6 C     3.335850144517E-01 -2.383201808228E-01 -3.930982838744E-01
     25 T   6 C     4.938550908113E-01 -1.666058611214E-01  1.238585244080E-01
     26 F   6 C    -4.938550908102E-01  3.333941388787E-01  3.761414755936E-01
     27 F   6 C    -4.938550908113E-01  1.666058611214E-01 -1.238585244080E-01
     28 F   6 C     4.938550908102E-01 -3.333941388787E-01 -3.761414755936E-01
     29 T   6 C    -4.161026314693E-01 -1.720510073754E-01  4.714438887712E-02
     30 F   6 C     4.161026314710E-01  3.279489926247E-01  4.528556111246E-01
     31 F   6 C     4.161026314693E-01  1.720510073754E-01 -4.714438887712E-02
     32 F   6 C    -4.161026314710E-01 -3.279489926247E-01 -4.528556111246E-01
     33 T   6 C    -4.883868490875E-01 -2.682643808799E-01 -4.522791127864E-02
     34 F   6 C     4.883868490865E-01  2.317356191203E-01 -4.547720887231E-01
     35 F   6 C     4.883868490875E-01  2.682643808799E-01  4.522791127864E-02
     36 F   6 C    -4.883868490865E-01 -2.317356191203E-01  4.547720887231E-01
     37 T   6 C     9.940694713548E-02  4.843428492962E-01 -2.221483207270E-01
     38 F   6 C    -9.940694713714E-02 -1.565715070393E-02 -2.778516792747E-01
     39 F   6 C    -9.940694713548E-02 -4.843428492962E-01  2.221483207270E-01
     40 F   6 C     9.940694713714E-02  1.565715070393E-02  2.778516792747E-01
     41 T   6 C     7.989122196482E-02  3.945317378561E-01 -3.246099198126E-01
     42 F   6 C    -7.989122196634E-02 -1.054682621441E-01 -1.753900801891E-01
     43 F   6 C    -7.989122196482E-02 -3.945317378561E-01  3.246099198126E-01
     44 F   6 C     7.989122196634E-02  1.054682621441E-01  1.753900801891E-01
     45 T   1 H     1.394044234146E-01 -4.315635067277E-01  5.531298271928E-03
     46 F   1 H    -1.394044234163E-01  6.843649327240E-02  4.944687017263E-01
     47 F   1 H    -1.394044234146E-01  4.315635067277E-01 -5.531298271928E-03
     48 F   1 H     1.394044234163E-01 -6.843649327240E-02 -4.944687017263E-01
     49 T   1 H     2.631919373034E-01 -2.612266298873E-01  1.664652601714E-01
     50 F   1 H    -2.631919373024E-01  2.387733701128E-01  3.335347398304E-01
     51 F   1 H    -2.631919373034E-01  2.612266298873E-01 -1.664652601714E-01
     52 F   1 H     2.631919373024E-01 -2.387733701128E-01 -3.335347398304E-01
     53 T   1 H    -2.912238863886E-01 -9.963169281028E-02  5.786380189439E-02
     54 F   1 H     2.912238863901E-01  4.003683071898E-01  4.421361981074E-01
     55 F   1 H     2.912238863886E-01  9.963169281028E-02 -5.786380189439E-02
     56 F   1 H    -2.912238863901E-01 -4.003683071898E-01 -4.421361981074E-01
     57 T   1 H    -4.162512732577E-01 -2.705162834389E-01 -1.039143550745E-01
     58 F   1 H     4.162512732564E-01  2.294837165612E-01 -3.960856449272E-01
     59 F   1 H     4.162512732577E-01  2.705162834389E-01  1.039143550745E-01
     60 F   1 H    -4.162512732564E-01 -2.294837165612E-01  3.960856449272E-01
     61 T   1 H    -3.061171358844E-01 -3.260228451582E-02  2.342309608106E-01
     62 F   1 H     3.061171358858E-01  4.673977154843E-01  2.657690391911E-01
     63 F   1 H     3.061171358844E-01  3.260228451582E-02 -2.342309608106E-01
     64 F   1 H    -3.061171358858E-01 -4.673977154843E-01 -2.657690391911E-01
     65 T   1 H     3.931857634842E-01 -4.711638527997E-01 -1.903762553105E-01
     66 F   1 H    -3.931857634854E-01  2.883614720039E-02 -3.096237446913E-01
     67 F   1 H    -3.931857634842E-01  4.711638527997E-01  1.903762553105E-01
     68 F   1 H     3.931857634854E-01 -2.883614720039E-02  3.096237446913E-01
     69 T   1 H    -6.870488984146E-02  4.147427707823E-01 -4.004066499368E-01
     70 F   1 H     6.870488983986E-02 -8.525722921783E-02 -9.959335006488E-02
     71 F   1 H     6.870488984146E-02 -4.147427707823E-01  4.004066499368E-01
     72 F   1 H    -6.870488983986E-02  8.525722921783E-02  9.959335006488E-02
     73 T   1 H     2.049757896192E-01  4.124702253083E-01 -3.491867477940E-01
     74 F   1 H    -2.049757896208E-01 -8.752977469179E-02 -1.508132522077E-01
     75 F   1 H    -2.049757896192E-01 -4.124702253083E-01  3.491867477940E-01
     76 F   1 H     2.049757896208E-01  8.752977469179E-02  1.508132522077E-01
     77 T   1 H     8.015875081160E-02  2.813645021657E-01 -3.034382425688E-01
     78 F   1 H    -8.015875081312E-02 -2.186354978344E-01 -1.965617574329E-01
     79 F   1 H    -8.015875081160E-02 -2.813645021657E-01  3.034382425688E-01
     80 F   1 H     8.015875081312E-02  2.186354978344E-01  1.965617574329E-01

 T = ATOM BELONGING TO THE ASYMMETRIC UNIT
 *******************************************************************************
 * GEOMETRY EDITING - INPUT COORDINATES ARE GIVEN IN ANGSTROM         
 *******************************************************************************

 GEOMETRY NOW FULLY CONSISTENT WITH THE GROUP

 FRQFRQFRQFRQFRQFRQFRQFRQFRQFRQFRQFRQFRQFRQFRQFRQFRQFRQFRQFRQFRQFRQFRQFRQFRQFRQ

                       FREQUENCY CALCULATION

 INFORMATION **** INPFREQ ****  PRINTING OF EIGENVECTORS
 INFORMATION **** INPFREQ **** NEW DEFAULT - IMPOSING ECKART CONDITIONS TO THE HESSIAN

 GCALCO - MAX INDICES DIRECT LATTICE VECTOR    20    14    11
 NO.OF VECTORS CREATED 6999 STARS 1868 RMAX   204.79562 BOHR

 GEOMETRY FOR WAVE FUNCTION - DIMENSIONALITY OF THE SYSTEM    3
 (NON PERIODIC DIRECTION: LATTICE PARAMETER FORMALLY SET TO 500)
 *******************************************************************************
 LATTICE PARAMETERS (ANGSTROMS AND DEGREES) - BOHR = 0.5291772083 ANGSTROM
 PRIMITIVE CELL - CENTRING CODE 1/0 VOLUME=   762.979584 - DENSITY  1.315 g/cm^3
         A              B              C           ALPHA      BETA       GAMMA 
     7.18337190     9.32907457    12.72505537    90.000000 116.527731  90.000000
 *******************************************************************************
 ATOMS IN THE ASYMMETRIC UNIT   20 - ATOMS IN THE UNIT CELL:   80
     ATOM                 X/A                 Y/B                 Z/C    
 *******************************************************************************
      1 T   8 O    -4.454008939711E-01 -7.194738757534E-02  2.131353024602E-01
      2 F   8 O     4.454008939732E-01  4.280526124252E-01  2.868646975416E-01
      3 F   8 O     4.454008939711E-01  7.194738757534E-02 -2.131353024602E-01
      4 F   8 O    -4.454008939690E-01 -4.280526124241E-01 -2.868646975381E-01
      5 T   8 O    -4.735949924255E-02 -4.998174967423E-01 -1.979437062278E-01
      6 F   8 O     4.735949924463E-02  1.825032582301E-04 -3.020562937705E-01
      7 F   8 O     4.735949924255E-02  4.998174967423E-01  1.979437062278E-01
      8 F   8 O    -4.735949924046E-02 -1.825032571583E-04  3.020562937740E-01
      9 T   7 N     2.866090759940E-01 -4.560155103949E-01 -1.596368506521E-01
     10 F   7 N    -2.866090759919E-01  4.398448960567E-02 -3.403631493461E-01
     11 F   7 N    -2.866090759940E-01  4.560155103949E-01  1.596368506521E-01
     12 F   7 N     2.866090759961E-01 -4.398448960460E-02  3.403631493497E-01
     13 T   6 C     3.491643862334E-01 -3.619222689729E-01 -6.347805594135E-02
     14 F   6 C    -3.491643862313E-01  1.380777310277E-01 -4.365219440569E-01
     15 F   6 C    -3.491643862334E-01  3.619222689729E-01  6.347805594135E-02
     16 F   6 C     3.491643862355E-01 -1.380777310266E-01  4.365219440604E-01
     17 T   6 C     2.622938511694E-01 -3.588595567160E-01  1.470314456161E-02
     18 F   6 C    -2.622938511673E-01  1.411404432846E-01  4.852968554401E-01
     19 F   6 C    -2.622938511694E-01  3.588595567160E-01 -1.470314456161E-02
     20 F   6 C     2.622938511715E-01 -1.411404432835E-01 -4.852968554366E-01
     21 T   6 C     3.335850144529E-01 -2.616798191773E-01  1.069017161273E-01
     22 F   6 C    -3.335850144508E-01  2.383201808232E-01  3.930982838744E-01
     23 F   6 C    -3.335850144529E-01  2.616798191773E-01 -1.069017161273E-01
     24 F   6 C     3.335850144550E-01 -2.383201808221E-01 -3.930982838709E-01
     25 T   6 C     4.938550908113E-01 -1.666058611214E-01  1.238585244080E-01
     26 F   6 C    -4.938550908092E-01  3.333941388791E-01  3.761414755938E-01
     27 F   6 C    -4.938550908113E-01  1.666058611214E-01 -1.238585244080E-01
     28 F   6 C     4.938550908134E-01 -3.333941388781E-01 -3.761414755902E-01
     29 T   6 C    -4.161026314693E-01 -1.720510073754E-01  4.714438887712E-02
     30 F   6 C     4.161026314714E-01  3.279489926251E-01  4.528556111246E-01
     31 F   6 C     4.161026314693E-01  1.720510073754E-01 -4.714438887712E-02
     32 F   6 C    -4.161026314673E-01 -3.279489926241E-01 -4.528556111211E-01
     33 T   6 C    -4.883868490875E-01 -2.682643808799E-01 -4.522791127864E-02
     34 F   6 C     4.883868490896E-01  2.317356191207E-01 -4.547720887196E-01
     35 F   6 C     4.883868490875E-01  2.682643808799E-01  4.522791127864E-02
     36 F   6 C    -4.883868490855E-01 -2.317356191196E-01  4.547720887231E-01
     37 T   6 C     9.940694713548E-02  4.843428492962E-01 -2.221483207270E-01
     38 F   6 C    -9.940694713340E-02 -1.565715070329E-02 -2.778516792712E-01
     39 F   6 C    -9.940694713548E-02 -4.843428492962E-01  2.221483207270E-01
     40 F   6 C     9.940694713756E-02  1.565715070436E-02  2.778516792747E-01
     41 T   6 C     7.989122196482E-02  3.945317378561E-01 -3.246099198126E-01
     42 F   6 C    -7.989122196274E-02 -1.054682621434E-01 -1.753900801856E-01
     43 F   6 C    -7.989122196482E-02 -3.945317378561E-01  3.246099198126E-01
     44 F   6 C     7.989122196690E-02  1.054682621445E-01  1.753900801891E-01
     45 T   1 H     1.394044234146E-01 -4.315635067277E-01  5.531298271928E-03
     46 F   1 H    -1.394044234125E-01  6.843649327283E-02  4.944687017298E-01
     47 F   1 H    -1.394044234146E-01  4.315635067277E-01 -5.531298271928E-03
     48 F   1 H     1.394044234167E-01 -6.843649327176E-02 -4.944687017263E-01
     49 T   1 H     2.631919373034E-01 -2.612266298873E-01  1.664652601714E-01
     50 F   1 H    -2.631919373014E-01  2.387733701133E-01  3.335347398304E-01
     51 F   1 H    -2.631919373034E-01  2.612266298873E-01 -1.664652601714E-01
     52 F   1 H     2.631919373055E-01 -2.387733701122E-01 -3.335347398269E-01
     53 T   1 H    -2.912238863886E-01 -9.963169281028E-02  5.786380189439E-02
     54 F   1 H     2.912238863907E-01  4.003683071903E-01  4.421361981074E-01
     55 F   1 H     2.912238863886E-01  9.963169281028E-02 -5.786380189439E-02
     56 F   1 H    -2.912238863865E-01 -4.003683071892E-01 -4.421361981039E-01
     57 T   1 H    -4.162512732577E-01 -2.705162834389E-01 -1.039143550745E-01
     58 F   1 H     4.162512732597E-01  2.294837165617E-01 -3.960856449237E-01
     59 F   1 H     4.162512732577E-01  2.705162834389E-01  1.039143550745E-01
     60 F   1 H    -4.162512732556E-01 -2.294837165606E-01  3.960856449272E-01
     61 T   1 H    -3.061171358844E-01 -3.260228451582E-02  2.342309608106E-01
     62 F   1 H     3.061171358865E-01  4.673977154847E-01  2.657690391912E-01
     63 F   1 H     3.061171358844E-01  3.260228451582E-02 -2.342309608106E-01
     64 F   1 H    -3.061171358823E-01 -4.673977154836E-01 -2.657690391877E-01
     65 T   1 H     3.931857634842E-01 -4.711638527997E-01 -1.903762553105E-01
     66 F   1 H    -3.931857634821E-01  2.883614720082E-02 -3.096237446878E-01
     67 F   1 H    -3.931857634842E-01  4.711638527997E-01  1.903762553105E-01
     68 F   1 H     3.931857634863E-01 -2.883614719975E-02  3.096237446913E-01
     69 T   1 H    -6.870488984146E-02  4.147427707823E-01 -4.004066499368E-01
     70 F   1 H     6.870488984354E-02 -8.525722921719E-02 -9.959335006145E-02
     71 F   1 H     6.870488984146E-02 -4.147427707823E-01  4.004066499368E-01
     72 F   1 H    -6.870488983938E-02  8.525722921826E-02  9.959335006497E-02
     73 T   1 H     2.049757896192E-01  4.124702253083E-01 -3.491867477940E-01
     74 F   1 H    -2.049757896171E-01 -8.752977469115E-02 -1.508132522042E-01
     75 F   1 H    -2.049757896192E-01 -4.124702253083E-01  3.491867477940E-01
     76 F   1 H     2.049757896213E-01  8.752977469222E-02  1.508132522078E-01
     77 T   1 H     8.015875081160E-02  2.813645021657E-01 -3.034382425688E-01
     78 F   1 H    -8.015875080952E-02 -2.186354978338E-01 -1.965617574294E-01
     79 F   1 H    -8.015875081160E-02 -2.813645021657E-01  3.034382425688E-01
     80 F   1 H     8.015875081368E-02  2.186354978348E-01  1.965617574329E-01

 T = ATOM BELONGING TO THE ASYMMETRIC UNIT

 ****    4 SYMMOPS - TRANSLATORS IN FRACTIONAL UNITS
 **** MATRICES AND TRANSLATORS IN THE CRYSTALLOGRAPHIC REFERENCE FRAME
   V INV                    ROTATION MATRICES                   TRANSLATORS
   1   1  1.00  0.00  0.00  0.00  1.00  0.00  0.00  0.00  1.00  0.00  0.00  0.00
   2   2 -1.00  0.00  0.00  0.00  1.00  0.00 -0.00  0.00 -1.00  0.00  0.50  0.50
   3   3 -1.00  0.00  0.00  0.00 -1.00 -0.00 -0.00  0.00 -1.00  0.00  0.00  0.00
   4   4  1.00 -0.00 -0.00 -0.00 -1.00 -0.00  0.00 -0.00  1.00  0.00  0.50  0.50

 DIRECT LATTICE VECTORS CARTESIAN COMPONENTS (ANGSTROM)
          X                    Y                    Z
   0.718336107137E+01   0.439830587507E-15  -0.124749123186E-01
  -0.164812833550E-17   0.932907457385E+01  -0.990222123832E-18
  -0.566362220803E+01   0.780058280119E-15   0.113951927454E+02


 CARTESIAN COORDINATES - PRIMITIVE CELL
 *******************************************************************************
 *      ATOM          X(ANGSTROM)         Y(ANGSTROM)         Z(ANGSTROM)
 *******************************************************************************
    1     8 O     2.776767796136E+00 -6.712025440840E-01  2.421799277163E+00
    2     8 O     1.574782171224E+00  3.993334742846E+00  3.263322183238E+00
    3     8 O    -2.776767796136E+00  6.712025440840E-01 -2.421799277163E+00
    4     8 O    -1.574782171214E+00 -3.993334742836E+00 -3.263322183198E+00
    5     8 O     7.808779873130E-01  4.666239873426E+00 -2.255015879604E+00
    6     8 O     2.050933116707E+00  1.702586505999E-03 -3.442580493076E+00
    7     8 O    -7.808779873130E-01 -4.666239873426E+00  2.255015879604E+00
    8     8 O    -2.050933116697E+00 -1.702586496001E-03  3.442580493116E+00
    9     7 N     2.962939291770E+00 -4.254202703306E+00 -1.822668105542E+00
   10     7 N    -1.311281877500E-01  4.103345836240E-01 -3.874928267138E+00
   11     7 N    -2.962939291770E+00  4.254202703306E+00  1.822668105542E+00
   12     7 N     1.311281877600E-01 -4.103345836140E-01  3.874928267178E+00
   13     6 C     2.867689586930E+00 -3.376399837185E+00 -7.277004776580E-01
   14     6 C    -3.587848291000E-02  1.288137449745E+00 -4.969895895022E+00
   15     6 C    -2.867689586930E+00  3.376399837185E+00  7.277004776580E-01
   16     6 C     3.587848292000E-02 -1.288137449735E+00  4.969895895062E+00
   17     6 C     1.800878383683E+00 -3.347827566142E+00  1.642730734480E-01
   18     6 C     1.030932720337E+00  1.316709720788E+00 -5.861869446128E+00
   19     6 C    -1.800878383683E+00  3.347827566142E+00 -1.642730734480E-01
   20     6 C    -1.030932720327E+00 -1.316709720778E+00  5.861869446168E+00
   21     6 C     1.790810673278E+00 -2.441230547577E+00  1.214004216279E+00
   22     6 C     2.560739294082E+00  2.223306739353E+00  4.471117244122E+00
   23     6 C    -1.790810673278E+00  2.441230547577E+00 -1.214004216279E+00
   24     6 C    -2.560739294072E+00 -2.223306739343E+00 -4.471117244082E+00
   25     6 C     2.846051544741E+00 -1.554278502842E+00  1.405230959834E+00
   26     6 C     1.505498422619E+00  3.110258784088E+00  4.279890500567E+00
   27     6 C    -2.846051544741E+00  1.554278502842E+00 -1.405230959834E+00
   28     6 C    -1.505498422609E+00 -3.110258784078E+00 -4.279890500527E+00
   29     6 C    -3.256023452420E+00 -1.605076678311E+00  5.424102419620E-01
   30     6 C     4.242123484100E-01  3.059460608619E+00  5.155186130758E+00
   31     6 C     3.256023452420E+00  1.605076678311E+00 -5.424102419620E-01
   32     6 C    -4.242123484000E-01 -3.059460608609E+00 -5.155186130718E+00
   33     6 C    -3.252105276764E+00 -2.502658414736E+00 -5.092881833720E-01
   34     6 C    -1.099444690586E+00  2.161878872194E+00 -5.175833276989E+00
   35     6 C     3.252105276764E+00  2.502658414736E+00  5.092881833720E-01
   36     6 C     1.099444690596E+00 -2.161878872184E+00  5.175833277029E+00
   37     6 C     1.972240157023E+00  4.518470560395E+00 -2.532663025701E+00
   38     6 C     8.595709469970E-01 -1.460667265250E-01 -3.164933346979E+00
   39     6 C    -1.972240157023E+00 -4.518470560395E+00  2.532663025701E+00
   40     6 C    -8.595709469870E-01  1.460667265350E-01  3.164933347019E+00
   41     6 C     2.412355444604E+00  3.680616004210E+00 -3.699989239323E+00
   42     6 C     4.194556594160E-01 -9.839212827100E-01 -1.997607133357E+00
   43     6 C    -2.412355444604E+00 -3.680616004210E+00  3.699989239323E+00
   44     6 C    -4.194556594060E-01  9.839212827200E-01  1.997607133397E+00
   45     1 H     9.700651246010E-01 -4.026088137615E+00  6.129115198200E-02
   46     1 H     1.861745979419E+00  6.384491493150E-01 -5.758887524662E+00
   47     1 H    -9.700651246010E-01  4.026088137615E+00 -6.129115198200E-02
   48     1 H    -1.861745979409E+00 -6.384491493050E-01  5.758887524702E+00
   49     1 H     9.478063723520E-01 -2.437002710894E+00  1.893620428725E+00
   50     1 H     3.403743595008E+00  2.227534576036E+00  3.791501031676E+00
   51     1 H    -9.478063723520E-01  2.437002710894E+00 -1.893620428725E+00
   52     1 H    -3.403743594998E+00 -2.227534576026E+00 -3.791501031636E+00
   53     1 H    -2.419685041987E+00 -9.294714921460E-01  6.630021680160E-01
   54     1 H    -4.121260620230E-01  3.735065794784E+00  5.034594204704E+00
   55     1 H     2.419685041987E+00  9.294714921460E-01 -6.630021680160E-01
   56     1 H     4.121260620330E-01 -3.735065794774E+00 -5.034594204664E+00
   57     1 H    -2.401551543094E+00 -2.523666581642E+00 -1.178931406952E+00
   58     1 H    -1.949998424256E+00  2.140870705288E+00 -4.506190053409E+00
   59     1 H     2.401551543094E+00  2.523666581642E+00  1.178931406952E+00
   60     1 H     1.949998424266E+00 -2.140870705278E+00  4.506190053449E+00
   61     1 H    -3.525545588646E+00 -3.041491435260E-01  2.672925729806E+00
   62     1 H     6.937344846360E-01  4.360388143404E+00  3.024670642914E+00
   63     1 H     3.525545588646E+00  3.041491435260E-01 -2.672925729806E+00
   64     1 H    -6.937344846260E-01 -4.360388143394E+00 -3.024670642874E+00
   65     1 H    -3.280746576683E+00 -4.395522719271E+00 -2.161804169016E+00
   66     1 H    -1.070803390667E+00  2.690145676590E-01 -3.523317291345E+00
   67     1 H     3.280746576683E+00  4.395522719271E+00  2.161804169016E+00
   68     1 H     1.070803390677E+00 -2.690145676490E-01  3.523317291385E+00
   69     1 H     1.774219963725E+00  3.869166237593E+00 -4.561853865093E+00
   70     1 H     1.057591140295E+00 -7.953710493270E-01 -1.135742507587E+00
   71     1 H    -1.774219963725E+00 -3.869166237593E+00  4.561853865093E+00
   72     1 H    -1.057591140285E+00  7.953710493370E-01  1.135742507627E+00
   73     1 H     3.450076927280E+00  3.847965491394E+00 -3.981607350255E+00
   74     1 H    -6.182658232600E-01 -8.165717955260E-01 -1.715989022425E+00
   75     1 H    -3.450076927280E+00 -3.847965491394E+00  3.981607350255E+00
   76     1 H     6.182658232700E-01  8.165717955360E-01  1.715989022465E+00
   77     1 H     2.294368819488E+00  2.624870423138E+00 -3.458737233785E+00
   78     1 H     5.374422845320E-01 -2.039666863782E+00 -2.238859138895E+00
   79     1 H    -2.294368819488E+00 -2.624870423138E+00  3.458737233785E+00
   80     1 H    -5.374422845220E-01  2.039666863792E+00  2.238859138935E+00

 *******************************************************************************
 STARTING BASIS SET HANDLING 
 *******************************************************************************

 Loading internal basis set: DEF2-MSVP           

 Please cite in your publication:
 Fully Optimized Contracted Gaussian Basis Sets for Atoms Li to Kr. A. Schäfer, H. Horn and R. Ahlrichs; J. Chem. Phys. 97, 2571 (1992).                                                                                                                         
 S. Grimme, J. G. Brandenburg, C. Bannwarth, and A. Hansen, J. Chem. Phys., 143, 054107 (2015).                                                                                                                                                                  

 *******************************************************************************
 LOCAL ATOMIC FUNCTIONS BASIS SET
 *******************************************************************************
   ATOM   X(AU)   Y(AU)   Z(AU)  N. TYPE  EXPONENT  S COEF   P COEF   D/F/G COEF
 *******************************************************************************
   1 O    5.247  -1.268   4.577
                                  1 S  
                                         6.773E+03 1.727E-03 0.000E+00 0.000E+00
                                         1.017E+03 1.325E-02 0.000E+00 0.000E+00
                                         2.313E+02 6.603E-02 0.000E+00 0.000E+00
                                         6.501E+01 2.353E-01 0.000E+00 0.000E+00
                                         2.050E+01 5.498E-01 0.000E+00 0.000E+00
                                  2 S  
                                         6.716E+00 1.000E+00 0.000E+00 0.000E+00
                                  3 S  
                                         1.147E+00 1.000E+00 0.000E+00 0.000E+00
                                  4 S  
                                         3.342E-01 1.000E+00 0.000E+00 0.000E+00
                           5-     7 P  
                                         1.769E+01 0.000E+00 4.359E-02 0.000E+00
                                         3.854E+00 0.000E+00 2.318E-01 0.000E+00
                                         1.047E+00 0.000E+00 5.146E-01 0.000E+00
                           8-    10 P  
                                         2.759E-01 0.000E+00 1.000E+00 0.000E+00
                          11-    15 D  
                                         8.000E-01 0.000E+00 0.000E+00 1.000E+00
   2 O    2.976   7.546   6.167
   3 O   -5.247   1.268  -4.577
   4 O   -2.976  -7.546  -6.167
   5 O    1.476   8.818  -4.261
   6 O    3.876   0.003  -6.506
   7 O   -1.476  -8.818   4.261
   8 O   -3.876  -0.003   6.506
   9 N    5.599  -8.039  -3.444
                                121 S  
                                         5.072E+03 1.707E-03 0.000E+00 0.000E+00
                                         7.614E+02 1.309E-02 0.000E+00 0.000E+00
                                         1.732E+02 6.510E-02 0.000E+00 0.000E+00
                                         4.867E+01 2.305E-01 0.000E+00 0.000E+00
                                         1.533E+01 5.330E-01 0.000E+00 0.000E+00
                                122 S  
                                         5.019E+00 1.000E+00 0.000E+00 0.000E+00
                                123 S  
                                         8.355E-01 1.000E+00 0.000E+00 0.000E+00
                                124 S  
                                         2.463E-01 1.000E+00 0.000E+00 0.000E+00
                         125-   127 P  
                                         1.355E+01 0.000E+00 4.063E-02 0.000E+00
                                         2.918E+00 0.000E+00 2.209E-01 0.000E+00
                                         7.983E-01 0.000E+00 5.186E-01 0.000E+00
                         128-   130 P  
                                         2.190E-01 0.000E+00 1.000E+00 0.000E+00
                         131-   135 D  
                                         8.000E-01 0.000E+00 0.000E+00 1.000E+00
  10 N   -0.248   0.775  -7.323
  11 N   -5.599   8.039   3.444
  12 N    0.248  -0.775   7.323
  13 C    5.419  -6.380  -1.375
                                181 S  
                                         3.624E+03 1.634E-03 0.000E+00 0.000E+00
                                         5.440E+02 1.252E-02 0.000E+00 0.000E+00
                                         1.237E+02 6.211E-02 0.000E+00 0.000E+00
                                         3.476E+01 2.182E-01 0.000E+00 0.000E+00
                                         1.093E+01 4.980E-01 0.000E+00 0.000E+00
                                182 S  
                                         3.574E+00 1.000E+00 0.000E+00 0.000E+00
                                183 S  
                                         5.748E-01 1.000E+00 0.000E+00 0.000E+00
                                184 S  
                                         1.730E-01 1.000E+00 0.000E+00 0.000E+00
                         185-   187 P  
                                         9.443E+00 0.000E+00 3.790E-02 0.000E+00
                                         2.002E+00 0.000E+00 2.082E-01 0.000E+00
                                         5.463E-01 0.000E+00 5.047E-01 0.000E+00
                         188-   190 P  
                                         1.520E-01 0.000E+00 1.000E+00 0.000E+00
                         191-   195 D  
                                         8.000E-01 0.000E+00 0.000E+00 1.000E+00
  14 C   -0.068   2.434  -9.392
  15 C   -5.419   6.380   1.375
  16 C    0.068  -2.434   9.392
  17 C    3.403  -6.326   0.310
  18 C    1.948   2.488 -11.077
  19 C   -3.403   6.326  -0.310
  20 C   -1.948  -2.488  11.077
  21 C    3.384  -4.613   2.294
  22 C    4.839   4.201   8.449
  23 C   -3.384   4.613  -2.294
  24 C   -4.839  -4.201  -8.449
  25 C    5.378  -2.937   2.656
  26 C    2.845   5.878   8.088
  27 C   -5.378   2.937  -2.656
  28 C   -2.845  -5.878  -8.088
  29 C   -6.153  -3.033   1.025
  30 C    0.802   5.782   9.742
  31 C    6.153   3.033  -1.025
  32 C   -0.802  -5.782  -9.742
  33 C   -6.146  -4.729  -0.962
  34 C   -2.078   4.085  -9.781
  35 C    6.146   4.729   0.962
  36 C    2.078  -4.085   9.781
  37 C    3.727   8.539  -4.786
  38 C    1.624  -0.276  -5.981
  39 C   -3.727  -8.539   4.786
  40 C   -1.624   0.276   5.981
  41 C    4.559   6.955  -6.992
  42 C    0.793  -1.859  -3.775
  43 C   -4.559  -6.955   6.992
  44 C   -0.793   1.859   3.775
  45 H    1.833  -7.608   0.116
                                661 S  
                                         1.874E+01 1.968E-02 0.000E+00 0.000E+00
                                         2.826E+00 1.380E-01 0.000E+00 0.000E+00
                                         6.401E-01 4.783E-01 0.000E+00 0.000E+00
                                662 S  
                                         1.756E-01 1.000E+00 0.000E+00 0.000E+00
  46 H    3.518   1.206 -10.883
  47 H   -1.833   7.608  -0.116
  48 H   -3.518  -1.206  10.883
  49 H    1.791  -4.605   3.578
  50 H    6.432   4.209   7.165
  51 H   -1.791   4.605  -3.578
  52 H   -6.432  -4.209  -7.165
  53 H   -4.573  -1.756   1.253
  54 H   -0.779   7.058   9.514
  55 H    4.573   1.756  -1.253
  56 H    0.779  -7.058  -9.514
  57 H   -4.538  -4.769  -2.228
  58 H   -3.685   4.046  -8.515
  59 H    4.538   4.769   2.228
  60 H    3.685  -4.046   8.515
  61 H   -6.662  -0.575   5.051
  62 H    1.311   8.240   5.716
  63 H    6.662   0.575  -5.051
  64 H   -1.311  -8.240  -5.716
  65 H   -6.200  -8.306  -4.085
  66 H   -2.024   0.508  -6.658
  67 H    6.200   8.306   4.085
  68 H    2.024  -0.508   6.658
  69 H    3.353   7.312  -8.621
  70 H    1.999  -1.503  -2.146
  71 H   -3.353  -7.312   8.621
  72 H   -1.999   1.503   2.146
  73 H    6.520   7.272  -7.524
  74 H   -1.168  -1.543  -3.243
  75 H   -6.520  -7.272   7.524
  76 H    1.168   1.543   3.243
  77 H    4.336   4.960  -6.536
  78 H    1.016  -3.854  -4.231
  79 H   -4.336  -4.960   6.536
  80 H   -1.016   3.854   4.231

 *******************************************************************************
 FINISHED BASIS SET HANDLING 
 *******************************************************************************

 INFORMATION **** SET_MPP **** PCRYSTAL CALCULATION
 INFORMATION **** READM2 **** NEW DEFAULT: FOCK/KS MATRIX MIXING SET TO 30 %
 INFORMATION **** READM2 **** NEW DEFAULT: FULL DIRECT SCF MODE
 INFORMATION **** READM2 **** NEW DEFAULT: COULOMB BIPOLAR BUFFER SET TO 32 Mb
 INFORMATION **** READM2 **** NEW DEFAULT: EXCHANGE BIPOLAR BUFFER SET TO 32 Mb

 *******************************************************************************
 NEW DEFAULT: DFT INTEGRATION GRID INCREASED TO XLGRID
 NEW DEFAULT: DIIS ACCELERATOR ACTIVE
 USE KEYWORD NODIIS TO TURN IT OFF
 *******************************************************************************

 INFORMATION **** RDDFTP **** PBEh-3c calculation
 INFORMATION **** RDDFTP **** PBEh hybrid functional combined with D3 and gCP

PLEASE CITE:
(1) PBEh-3c Reference
 S. Grimme, J. G. Brandenburg, C. Bannwarth, and A. Hansen, 
 J. Chem. Phys. 143, 054107 (2015)
(2) DFT-D3 Reference
 S. Grimme, J. Antony, S. Ehrlich, and H. Krieg, J. Chem. Phys. 132, 154104 (2010)
(3) gCP Reference
 H. Kruse and S. Grimme J. Chem. Phys, 136, 154101 (2012)
 J. G. Brandenburg, M. Alessio, B. Civalleri, M. F. Peintinger
 T. Bredow, and S. Grimme, J. Phys. Chem. A, 117, 9282 (2013) 

 WARNING **** RDDFTP **** PBEh-3c has to be combined with def2-mSVP basis set
 WARNING **** RDDFTP **** Note: Harmonic frequencies are scaled by 0.95
 WARNING **** RDDFTP **** as recommended in original publication
 INFORMATION **** TOLDEE **** SCF TOL ON TOTAL ENERGY SET TO           9
 INFORMATION **** TOLINTEG **** COULOMB AND EXCHANGE SERIES TOLERANCES MODIFIED
 INFORMATION **** MAXCYCLE **** MAX NUMBER OF SCF CYCLES SET TO          30
 WARNING **** READM2 **** PROBABLE LOSS IN FREQCALC ACCURACY; SCF TOL LT          10
 *******************************************************************************
 N. OF ATOMS PER CELL        80  COULOMB OVERLAP TOL         (T1) 10**   -8
 NUMBER OF SHELLS           380  COULOMB PENETRATION TOL     (T2) 10**   -8
 NUMBER OF AO               732  EXCHANGE OVERLAP TOL        (T3) 10**   -8
 N. OF ELECTRONS PER CELL   320  EXCHANGE PSEUDO OVP (F(G))  (T4) 10**   -8
 CORE ELECTRONS PER CELL     88  EXCHANGE PSEUDO OVP (P(G))  (T5) 10**  -24
 N. OF SYMMETRY OPERATORS     4  POLE ORDER IN MONO ZONE                  4
 *******************************************************************************
 TYPE OF CALCULATION :  RESTRICTED CLOSED SHELL
 KOHN-SHAM HAMILTONIAN

 (EXCHANGE)[CORRELATION] FUNCTIONAL:(PBEh-3c)[PBEh-3c]


 HYBRID EXCHANGE - PERCENTAGE OF FOCK EXCHANGE    42.0000

 CAPPA:IS1  4;IS2  4;IS3  2; K PTS MONK NET  18; SYMMOPS:K SPACE   4;G SPACE   4

 *******************************************************************************
 MAX NUMBER OF SCF CYCLES      30  CONVERGENCE ON DELTAP        10**-19
 WEIGHT OF F(I) IN F(I+1)      50% CONVERGENCE ON ENERGY        10**- 9
 SHRINK. FACT.(MONKH.)    4  4  2  NUMBER OF K POINTS IN THE IBZ     18
 SHRINKING FACTOR(GILAT NET)    4  NUMBER OF K POINTS(GILAT NET)     18
 *******************************************************************************
 *** K POINTS COORDINATES (OBLIQUE COORDINATES IN UNITS OF IS =  4)
   1-R(  0  0  0)   2-C(  1  0  0)   3-R(  2  0  0)   4-C(  0  1  0)
   5-C(  1  1  0)   6-C(  2  1  0)   7-R(  0  2  0)   8-C(  1  2  0)
   9-R(  2  2  0)  10-R(  0  0  1)  11-C(  1  0  1)  12-R(  2  0  1)
  13-C(  0  1  1)  14-C(  1  1  1)  15-C(  2  1  1)  16-R(  0  2  1)
  17-C(  1  2  1)  18-R(  2  2  1)

 DIRECT LATTICE VECTORS COMPON. (A.U.)     RECIP. LATTICE VECTORS COMPON. (A.U.) 
        X            Y            Z              X            Y            Z
   13.5745851    0.0000000   -0.0235742      0.4632638    0.0000000    0.2302507
   -0.0000000   17.6293960   -0.0000000     -0.0000000    0.3564039   -0.0000000
  -10.7026949    0.0000000   21.5337935      0.0005072    0.0000000    0.2920346

 DISK SPACE FOR EIGENVECTORS (FTN 10)    15003072 REALS

 SYMMETRY ADAPTION OF THE BLOCH FUNCTIONS ENABLED
 TTTTTTTTTTTTTTTTTTTTTTTTTTTTTT gordsh1     TELAPSE        4.28 TCPU        2.53

 MATRIX SIZE: P(G) 2240100, F(G)  209686, P(G) IRR  284106, F(G) IRR   53200
 MAX G-VECTOR INDEX FOR 1- AND 2-ELECTRON INTEGRALS  95

 TTTTTTTTTTTTTTTTTTTTTTTTTTTTTT INPUT       TELAPSE        4.42 TCPU        2.67

 NEIGHBORS OF THE NON-EQUIVALENT ATOMS

 N = NUMBER OF NEIGHBORS AT DISTANCE R
    ATOM  N     R/ANG      R/AU   NEIGHBORS (ATOM LABELS AND CELL INDICES)
   1 O    1     0.9838     1.8592   61 H    1 0 0
   1 O    1     1.3483     2.5480   25 C    0 0 0
   1 O    1     2.0701     3.9120   68 H    0 0 0
   1 O    1     2.3588     4.4575   21 C    0 0 0
   1 O    1     2.4031     4.5413   29 C    1 0 0
   1 O    1     2.5966     4.9068   49 H    0 0 0

   5 O    1     1.2322     2.3285   37 C    0 0 0
   5 O    1     1.6907     3.1949   64 H    0 1 0
   5 O    1     2.2617     4.2740    9 N    0 1 0
   5 O    1     2.3919     4.5200   41 C    0 0 0
   5 O    1     2.4097     4.5536   45 H    0 1 0
   5 O    1     2.6345     4.9785   78 H    0 1 0

   9 N    1     1.0132     1.9147   65 H    1 0 0
   9 N    1     1.3398     2.5319   37 C    0-1 0
   9 N    1     1.4066     2.6581   13 C    0 0 0
   9 N    1     2.2617     4.2740    5 O    0-1 0
   9 N    1     2.3870     4.5108   33 C    1 0 0
   9 N    1     2.4024     4.5398   41 C    0-1 0

  13 C    1     1.3909     2.6284   17 C    0 0 0
  13 C    1     1.3918     2.6301   33 C    1 0 0
  13 C    1     1.4066     2.6581    9 N    0 0 0
  13 C    1     2.0499     3.8738   65 H    1 0 0
  13 C    1     2.1462     4.0557   57 H    1 0 0
  13 C    1     2.1554     4.0730   45 H    0 0 0

  17 C    1     1.0774     2.0361   45 H    0 0 0
  17 C    1     1.3871     2.6212   21 C    0 0 0
  17 C    1     1.3909     2.6284   13 C    0 0 0
  17 C    1     2.1326     4.0300   49 H    0 0 0
  17 C    1     2.3924     4.5209   33 C    1 0 0
  17 C    1     2.4185     4.5703   25 C    0 0 0

  21 C    1     1.0828     2.0463   49 H    0 0 0
  21 C    1     1.3871     2.6212   17 C    0 0 0
  21 C    1     1.3917     2.6299   25 C    0 0 0
  21 C    1     2.1247     4.0150   45 H    0 0 0
  21 C    1     2.3588     4.4575    1 O    0 0 0
  21 C    1     2.3941     4.5242   29 C    1 0 0

  25 C    1     1.3483     2.5480    1 O    0 0 0
  25 C    1     1.3917     2.6299   21 C    0 0 0
  25 C    1     1.3921     2.6307   29 C    1 0 0
  25 C    1     1.9487     3.6825   61 H    1 0 0
  25 C    1     2.1497     4.0623   49 H    0 0 0
  25 C    1     2.1534     4.0694   53 H    1 0 0

  29 C    1     1.0819     2.0444   53 H    0 0 0
  29 C    1     1.3827     2.6128   33 C    0 0 0
  29 C    1     1.3921     2.6307   25 C   -1 0 0
  29 C    1     2.1300     4.0251   57 H    0 0 0
  29 C    1     2.3941     4.5242   21 C   -1 0 0
  29 C    1     2.4031     4.5413    1 O   -1 0 0

  33 C    1     1.0827     2.0461   57 H    0 0 0
  33 C    1     1.3827     2.6128   29 C    0 0 0
  33 C    1     1.3918     2.6301   13 C   -1 0 0
  33 C    1     2.1312     4.0274   53 H    0 0 0
  33 C    1     2.3870     4.5108    9 N   -1 0 0
  33 C    1     2.3924     4.5209   17 C   -1 0 0

  37 C    1     1.2322     2.3285    5 O    0 0 0
  37 C    1     1.3398     2.5319    9 N    0 1 0
  37 C    1     1.5028     2.8398   41 C    0 0 0
  37 C    1     2.0068     3.7922   65 H    1 1 0
  37 C    1     2.1324     4.0296   77 H    0 0 0
  37 C    1     2.1397     4.0435   69 H    0 0 0

  41 C    1     1.0882     2.0564   73 H    0 0 0
  41 C    1     1.0888     2.0576   69 H    0 0 0
  41 C    1     1.0894     2.0586   77 H    0 0 0
  41 C    1     1.5028     2.8398   37 C    0 0 0
  41 C    1     2.3919     4.5200    5 O    0 0 0
  41 C    1     2.4024     4.5398    9 N    0 1 0

  45 H    1     1.0774     2.0361   17 C    0 0 0
  45 H    1     2.1247     4.0150   21 C    0 0 0
  45 H    1     2.1554     4.0730   13 C    0 0 0
  45 H    1     2.3259     4.3952   47 H    0-1 0
  45 H    1     2.4097     4.5536    5 O    0-1 0
  45 H    1     2.4255     4.5836   49 H    0 0 0

  49 H    1     1.0828     2.0463   21 C    0 0 0
  49 H    1     2.1326     4.0300   17 C    0 0 0
  49 H    1     2.1497     4.0623   25 C    0 0 0
  49 H    1     2.4255     4.5836   45 H    0 0 0
  49 H    1     2.5966     4.9068    1 O    0 0 0
  49 H    1     2.7150     5.1306   68 H    0 0 0

  53 H    1     1.0819     2.0444   29 C    0 0 0
  53 H    1     2.1312     4.0274   33 C    0 0 0
  53 H    1     2.1534     4.0694   25 C   -1 0 0
  53 H    1     2.2481     4.2483   72 H    0 0 0
  53 H    1     2.3778     4.4933   61 H    0 0 0
  53 H    1     2.4361     4.6035   57 H    0 0 0

  57 H    1     1.0827     2.0461   33 C    0 0 0
  57 H    1     2.1300     4.0251   29 C    0 0 0
  57 H    1     2.1462     4.0557   13 C   -1 0 0
  57 H    1     2.2897     4.3270   65 H    0 0 0
  57 H    1     2.4361     4.6035   53 H    0 0 0
  57 H    1     2.5264     4.7742   74 H    0 0 0

  61 H    1     0.9838     1.8592    1 O   -1 0 0
  61 H    1     1.6907     3.1949    8 O    0 0 0
  61 H    1     1.9487     3.6825   25 C   -1 0 0
  61 H    1     2.3778     4.4933   53 H    0 0 0
  61 H    1     2.5108     4.7447   29 C    0 0 0
  61 H    1     2.7273     5.1539   68 H   -1 0 0

  65 H    1     1.0132     1.9147    9 N   -1 0 0
  65 H    1     2.0068     3.7922   37 C   -1-1 0
  65 H    1     2.0499     3.8738   13 C   -1 0 0
  65 H    1     2.0701     3.9120    4 O    0 0 0
  65 H    1     2.1563     4.0749   73 H   -1-1 0
  65 H    1     2.2897     4.3270   57 H    0 0 0

  69 H    1     1.0888     2.0576   41 C    0 0 0
  69 H    1     1.7423     3.2925   77 H    0 0 0
  69 H    1     1.7736     3.3516   73 H    0 0 0
  69 H    1     2.1397     4.0435   37 C    0 0 0
  69 H    1     2.2481     4.2483   56 H    0 1 0
  69 H    1     2.6351     4.9795    5 O    0 0 0

  73 H    1     1.0882     2.0564   41 C    0 0 0
  73 H    1     1.7621     3.3299   77 H    0 0 0
  73 H    1     1.7736     3.3516   69 H    0 0 0
  73 H    1     2.1563     4.0749   65 H    1 1 0
  73 H    1     2.1756     4.1112   37 C    0 0 0
  73 H    1     2.5264     4.7742   58 H    1 0 0

  77 H    1     1.0894     2.0586   41 C    0 0 0
  77 H    1     1.7423     3.2925   69 H    0 0 0
  77 H    1     1.7621     3.3299   73 H    0 0 0
  77 H    1     2.1324     4.0296   37 C    0 0 0
  77 H    1     2.6345     4.9785    6 O    0 0 0
  77 H    1     2.7421     5.1818   63 H    0 0 0


 SYMMETRY ALLOWED INTERNAL DEGREE(S) OF FREEDOM:  60
 TTTTTTTTTTTTTTTTTTTTTTTTTTTTTT SYMM        TELAPSE        4.46 TCPU        2.70
 TTTTTTTTTTTTTTTTTTTTTTTTTTTTTT INT_SCREEN  TELAPSE        4.83 TCPU        3.08

 *******************************************************************************
 *                                                                             *
 *                                                                             *
 *         FFFFF  RRRR   EEEE   QQQ   U   U  EEEE  N   N   CCC  Y   Y          *
 *         F      R   R  E     Q   Q  U   U  E     NN  N  C      Y Y           *
 *         FFF    RRRR   EEEE  Q   Q  U   U  EEEE  N N N  C       Y            *
 *         F      R   R  E     Q  QQ  U   U  E     N  NN  C       Y            *
 *         F      R   R  EEEE   QQ Q   UUU   EEEE  N   N   CCC    Y            *
 *                                                                             *
 *                                                                             *
 * CALCULATION OF PHONON FREQUENCIES AT THE GAMMA POINT.                       *
 *                                                                             *
 * SYMMETRY IS EXPLOITED TO BUILD THE TOTAL HESSIAN MATRIX.                    *
 * (F. PASCALE PHD THESIS TURIN-PARIS 2002)                                    *
 *                                                                             *
 *******************************************************************************


 * INTENSITIES COMPUTED VIA THE BERRY PHASE APPROACH                           *
 *                                                                             *
 * REFERENCES TO BE QUOTED WHEN USING THIS MODULE:                             *
 *                                                                             *
 * F. Pascale, C.M. Zicovich-Wilson, F. Lopez, B. Civalleri                    *
 * R. Orlando, R. Dovesi                                                       *
 * The calculation of the vibration frequencies of crystalline                 *
 * compounds and its implementation in the CRYSTAL code                        *
 * J. Comput. Chem. 25 (2004) 888-897                                          *
 *                                                                             *
 * C.M. Zicovich-Wilson, F. Pascale, C. Roetti, V.R. Saunders,                 *
 * R. Orlando, R. Dovesi                                                       *
 * The calculation of the vibration frequencies of alpha-quartz:               *
 * the effect of hamiltonian and basis set                                     *
 * J. Comput. Chem. 25 (2004) 1873-1881                                        *
 *******************************************************************************



 ATOMS ISOTOPIC MASS (AMU) FOR FREQUENCY CALCULATION 

    1 O      15.9949    2 O      15.9949    3 O      15.9949    4 O      15.9949
    5 O      15.9949    6 O      15.9949    7 O      15.9949    8 O      15.9949
    9 N      14.0031   10 N      14.0031   11 N      14.0031   12 N      14.0031
   13 C      12.0000   14 C      12.0000   15 C      12.0000   16 C      12.0000
   17 C      12.0000   18 C      12.0000   19 C      12.0000   20 C      12.0000
   21 C      12.0000   22 C      12.0000   23 C      12.0000   24 C      12.0000
   25 C      12.0000   26 C      12.0000   27 C      12.0000   28 C      12.0000
   29 C      12.0000   30 C      12.0000   31 C      12.0000   32 C      12.0000
   33 C      12.0000   34 C      12.0000   35 C      12.0000   36 C      12.0000
   37 C      12.0000   38 C      12.0000   39 C      12.0000   40 C      12.0000
   41 C      12.0000   42 C      12.0000   43 C      12.0000   44 C      12.0000
   45 H       1.0078   46 H       1.0078   47 H       1.0078   48 H       1.0078
   49 H       1.0078   50 H       1.0078   51 H       1.0078   52 H       1.0078
   53 H       1.0078   54 H       1.0078   55 H       1.0078   56 H       1.0078
   57 H       1.0078   58 H       1.0078   59 H       1.0078   60 H       1.0078
   61 H       1.0078   62 H       1.0078   63 H       1.0078   64 H       1.0078
   65 H       1.0078   66 H       1.0078   67 H       1.0078   68 H       1.0078
   69 H       1.0078   70 H       1.0078   71 H       1.0078   72 H       1.0078
   73 H       1.0078   74 H       1.0078   75 H       1.0078   76 H       1.0078
   77 H       1.0078   78 H       1.0078   79 H       1.0078   80 H       1.0078

 INFORMATION CONCERNING THE SCF+GRADIENT CALCULATIONS REQUIRED FOR
 GENERATING FREQUENCIES. IN PRINCIPLE 3N+1 SCF + GRADIENT
 CALCULATIONS  ARE REQUIRED;
 FOR EACH OF THEM THE REMAINING POINT SYMMETRY IS INDICATED.
 POINT SYMMETRY PERMITS TO GENERATE GRADIENTS FOR DISPLACEMENT B 
 STARTING FROM THE GRADIENT GENERATED BY DISPLACEMENT A.

   N   LABEL SYMBOL DISPLACEMENT     SYM. 

   1     EQUILIBRIUM GEOMETRY            4

   2      1   O            DX           1
   3      1   O            DY           1
   4      1   O            DZ           1
   5      5   O            DX           1
   6      5   O            DY           1
   7      5   O            DZ           1
   8      9   N            DX           1
   9      9   N            DY           1
  10      9   N            DZ           1
  11     13   C            DX           1
  12     13   C            DY           1
  13     13   C            DZ           1
  14     17   C            DX           1
  15     17   C            DY           1
  16     17   C            DZ           1
  17     21   C            DX           1
  18     21   C            DY           1
  19     21   C            DZ           1
  20     25   C            DX           1
  21     25   C            DY           1
  22     25   C            DZ           1
  23     29   C            DX           1
  24     29   C            DY           1
  25     29   C            DZ           1
  26     33   C            DX           1
  27     33   C            DY           1
  28     33   C            DZ           1
  29     37   C            DX           1
  30     37   C            DY           1
  31     37   C            DZ           1
  32     41   C            DX           1
  33     41   C            DY           1
  34     41   C            DZ           1
  35     45   H            DX           1
  36     45   H            DY           1
  37     45   H            DZ           1
  38     49   H            DX           1
  39     49   H            DY           1
  40     49   H            DZ           1
  41     53   H            DX           1
  42     53   H            DY           1
  43     53   H            DZ           1
  44     57   H            DX           1
  45     57   H            DY           1
  46     57   H            DZ           1
  47     61   H            DX           1
  48     61   H            DY           1
  49     61   H            DZ           1
  50     65   H            DX           1
  51     65   H            DY           1
  52     65   H            DZ           1
  53     69   H            DX           1
  54     69   H            DY           1
  55     69   H            DZ           1
  56     73   H            DX           1
  57     73   H            DY           1
  58     73   H            DZ           1
  59     77   H            DX           1
  60     77   H            DY           1
  61     77   H            DZ           1
 USE OF RESIDUAL SYMMETRY AFTER DISPLACEMENT

 NUMERICAL GRADIENT COMPUTED WITH A SINGLE DISPLACEMENT (+DX) FOR EACH
 CARTESIAN COORDINATE WITH RESPECT TO THE EQUILIBRIUM CONFIGURATION
 DX=  0.003 ANGSTROM
 NUMBER OF IRREDUCIBLE ATOMS                    20
 NUMBER OF SCF+GRADIENT CALCULATIONS            61

  ATOM  SYMOP  ORDER
    1      1      1
    5      1      1
    9      1      1
   13      1      1
   17      1      1
   21      1      1
   25      1      1
   29      1      1
   33      1      1
   37      1      1
   41      1      1
   45      1      1
   49      1      1
   53      1      1
   57      1      1
   61      1      1
   65      1      1
   69      1      1
   73      1      1
   77      1      1

 ATOM  : IRREDUCIBLE ATOM
 SYMOP : NUMBER OF SYMMETRY OPERATORS THAT DOESN'T MOVE THE IRREDUCIBLE ATOM
 ORDER : MAXIMUM ORDER AMONG THE OPERATORS OF THE IRREDUCIBLE ATOM

 *******************************************************************************


 GCALCO - MAX INDICES DIRECT LATTICE VECTOR    20    14    11
 NO.OF VECTORS CREATED 6999 STARS 1868 RMAX   204.79562 BOHR

 CAPPA:IS1  4;IS2  4;IS3  2; K PTS MONK NET  18; SYMMOPS:K SPACE   4;G SPACE   4

 TTTTTTTTTTTTTTTTTTTTTTTTTTTTTT gordsh1     TELAPSE        4.86 TCPU        3.11

 MATRIX SIZE: P(G) 2240100, F(G)  209686, P(G) IRR  284106, F(G) IRR   53200
 MAX G-VECTOR INDEX FOR 1- AND 2-ELECTRON INTEGRALS  95

 TTTTTTTTTTTTTTTTTTTTTTTTTTTTTT INPUT       TELAPSE        4.88 TCPU        3.13

 SYMMETRY ALLOWED INTERNAL DEGREE(S) OF FREEDOM:  60
 TTTTTTTTTTTTTTTTTTTTTTTTTTTTTT SYMM        TELAPSE        4.90 TCPU        3.15
 TTTTTTTTTTTTTTTTTTTTTTTTTTTTTT INT_SCREEN  TELAPSE        4.91 TCPU        3.16
 INFORMATION **** EXCBUF **** EXCH. BIPO BUFFER: WORDS USED =     3817593

 DFT PARAMETERS

     ATOM       ELECTRONS   NET CHARGE   R(ANGSTROM)
   1   8  O       8.0000      0.0000     0.74000000
   9   7  N       7.0000      0.0000     0.74000000
  13   6  C       6.0000      0.0000     0.77000000
  45   1  H       1.0000      0.0000     1.11000000

 SIZE OF GRID=     997792
 TTTTTTTTTTTTTTTTTTTTTTTTTTTTTT MAKE_GRID2  TELAPSE        8.12 TCPU        6.36
 BECKE WEIGHT FUNCTION
 RADSAFE =     2.00
 TOLERANCES - DENSITY:10**- 6; POTENTIAL:10**- 9; GRID WGT:10**-14

 RADIAL INTEGRATION  - INTERVALS (POINTS,UPPER LIMIT):            1( 99,  4.0*R)

 ANGULAR INTEGRATION - INTERVALS (ACCURACY LEVEL [N. POINTS] UPPER LIMIT):
  1(  6[ 146]   0.2)  2( 11[ 302]   0.5)  3( 14[ 590]   0.9)  4( 18[1454]   3.5)
  5( 14[ 590]9999.0)
 TTTTTTTTTTTTTTTTTTTTTTTTTTTTTT INT_CALC    TELAPSE        8.16 TCPU        6.40

 *******************************************************************************
 F1 vol step2 freq - PBEh-3c                                                     
 CRYSTAL - SCF - TYPE OF CALCULATION :  RESTRICTED CLOSED SHELL
 *******************************************************************************

 CAPPA:IS1  4;IS2  4;IS3  2; K PTS MONK NET  18; SYMMOPS:K SPACE   4;G SPACE   4

 TTTTTTTTTTTTTTTTTTTTTTTTTTTTTT SDIK        TELAPSE        8.43 TCPU        6.67

 AAAAAAAAAAAAAAAAAAAAAAAAAAAAAAAAAAAAAAAAAAAAAAAAAAAAAAAAAAAAAAAAAAAAAAAAAAAAAAA
         ATOMIC WAVEFUNCTION(S)


 NUCLEAR CHARGE  8.0  SYMMETRY SPECIES            S    P
 N. ELECTRONS    8.0  NUMBER OF PRIMITIVE GTOS    8    4
                      NUMBER OF CONTRACTED GTOS   4    2
                      NUMBER OF CLOSED SHELLS     2    0
                      OPEN SHELL OCCUPATION       0    4

  ZNUC SCFIT  TOTAL HF ENERGY   KINETIC ENERGY   VIRIAL THEOREM ACCURACY
   8.0  12   -7.477373220E+01  7.477365593E+01 -2.000001020E+00  3.8E-06

 NUCLEAR CHARGE  7.0  SYMMETRY SPECIES            S    P
 N. ELECTRONS    7.0  NUMBER OF PRIMITIVE GTOS    8    4
                      NUMBER OF CONTRACTED GTOS   4    2
                      NUMBER OF CLOSED SHELLS     2    0
                      OPEN SHELL OCCUPATION       0    3

  ZNUC SCFIT  TOTAL HF ENERGY   KINETIC ENERGY   VIRIAL THEOREM ACCURACY
   7.0   9   -5.437948210E+01  5.437948297E+01 -1.999999984E+00  1.2E-06

 NUCLEAR CHARGE  6.0  SYMMETRY SPECIES            S    P
 N. ELECTRONS    6.0  NUMBER OF PRIMITIVE GTOS    8    4
                      NUMBER OF CONTRACTED GTOS   4    2
                      NUMBER OF CLOSED SHELLS     2    0
                      OPEN SHELL OCCUPATION       0    2

  ZNUC SCFIT  TOTAL HF ENERGY   KINETIC ENERGY   VIRIAL THEOREM ACCURACY
   6.0   9   -3.767634636E+01  3.767630973E+01 -2.000000972E+00  4.2E-06

 NUCLEAR CHARGE  1.0  SYMMETRY SPECIES            S
 N. ELECTRONS    1.0  NUMBER OF PRIMITIVE GTOS    4
                      NUMBER OF CONTRACTED GTOS   2
                      NUMBER OF CLOSED SHELLS     0
                      OPEN SHELL OCCUPATION       1

  ZNUC SCFIT  TOTAL HF ENERGY   KINETIC ENERGY   VIRIAL THEOREM ACCURACY
   1.0   1   -4.977266687E-01  5.190767460E-01 -1.958869132E+00  2.2E-17

 AAAAAAAAAAAAAAAAAAAAAAAAAAAAAAAAAAAAAAAAAAAAAAAAAAAAAAAAAAAAAAAAAAAAAAAAAAAAAAA

 TTTTTTTTTTTTTTTTTTTTTTTTTTTTTT MOQGAD      TELAPSE        8.78 TCPU        6.89
 TTTTTTTTTTTTTTTTTTTTTTTTTTTTTT SHELLXN     TELAPSE       10.72 TCPU        8.82
 TTTTTTTTTTTTTTTTTTTTTTTTTTTTTT MONMO3      TELAPSE       11.95 TCPU       10.06
 NUMERICALLY INTEGRATED DENSITY    319.9998384500
 TTTTTTTTTTTTTTTTTTTTTTTTTTTTTT NUMDFT      TELAPSE       12.26 TCPU       10.37
 CYC   0 ETOT(AU) -2.070706222681E+03 DETOT -2.07E+03 tst  0.00E+00 PX  1.00E+00
 TTTTTTTTTTTTTTTTTTTTTTTTTTTTTT DIIS        TELAPSE       12.30 TCPU       10.40
 TTTTTTTTTTTTTTTTTTTTTTTTTTTTTT FDIK        TELAPSE       12.89 TCPU       10.99
 INSULATING STATE
 TOP OF VALENCE BANDS -    BAND    160; K    1; EIG -2.8141249E-01 AU
 BOTTOM OF VIRTUAL BANDS - BAND    161; K    7; EIG -1.2558114E-01 AU
 INDIRECT ENERGY BAND GAP:   4.2404 eV
 BOTTOM OF VIRTUAL BANDS - BAND    161; K    1; EIG -1.2043554E-01 AU
 TTTTTTTTTTTTTTTTTTTTTTTTTTTTTT PDIG        TELAPSE       13.24 TCPU       11.34
 TTTTTTTTTTTTTTTTTTTTTTTTTTTTTT MOQGAD      TELAPSE       13.24 TCPU       11.34
 TTTTTTTTTTTTTTTTTTTTTTTTTTTTTT SHELLXN     TELAPSE       15.25 TCPU       13.35
 TTTTTTTTTTTTTTTTTTTTTTTTTTTTTT MONMO3      TELAPSE       16.59 TCPU       14.68
 NUMERICALLY INTEGRATED DENSITY    319.9998731347
 TTTTTTTTTTTTTTTTTTTTTTTTTTTTTT NUMDFT      TELAPSE       17.05 TCPU       15.15
 CYC   1 ETOT(AU) -2.057248103131E+03 DETOT  1.35E+01 tst  0.00E+00 PX  1.00E+00
 TTTTTTTTTTTTTTTTTTTTTTTTTTTTTT DIIS        TELAPSE       17.09 TCPU       15.19
 DIIS TEST: 0.17537E+01 AT SCF   CYCLE   1 - MIX   50 %
 TTTTTTTTTTTTTTTTTTTTTTTTTTTTTT FDIK        TELAPSE       17.70 TCPU       15.79
 INSULATING STATE
 TOP OF VALENCE BANDS -    BAND    160; K   10; EIG -2.4898625E-01 AU
 TOP OF VALENCE BANDS -    BAND    160; K    1; EIG -2.4905945E-01 AU
 BOTTOM OF VIRTUAL BANDS - BAND    161; K    7; EIG -4.7010196E-02 AU
 INDIRECT ENERGY BAND GAP:   5.4961 eV
 BOTTOM OF VIRTUAL BANDS - BAND    161; K    1; EIG -4.6919621E-02 AU
 TTTTTTTTTTTTTTTTTTTTTTTTTTTTTT PDIG        TELAPSE       18.05 TCPU       16.14
 TTTTTTTTTTTTTTTTTTTTTTTTTTTTTT MOQGAD      TELAPSE       18.05 TCPU       16.14
 TTTTTTTTTTTTTTTTTTTTTTTTTTTTTT SHELLXN     TELAPSE       20.06 TCPU       18.16
 TTTTTTTTTTTTTTTTTTTTTTTTTTTTTT MONMO3      TELAPSE       21.35 TCPU       19.44
 NUMERICALLY INTEGRATED DENSITY    319.9998655340
 TTTTTTTTTTTTTTTTTTTTTTTTTTTTTT NUMDFT      TELAPSE       21.73 TCPU       19.82
 CYC   2 ETOT(AU) -2.057711833270E+03 DETOT -4.64E-01 tst  9.78E-04 PX  1.28E-01
 TTTTTTTTTTTTTTTTTTTTTTTTTTTTTT DIIS        TELAPSE       21.77 TCPU       19.86
 DIIS TEST: 0.14181E+00 AT SCF   CYCLE   2 - DIIS ACTIVE - HISTORY:     2 CYCLES
 TTTTTTTTTTTTTTTTTTTTTTTTTTTTTT FDIK        TELAPSE       22.39 TCPU       20.46
 INSULATING STATE
 TOP OF VALENCE BANDS -    BAND    160; K   10; EIG -2.4024712E-01 AU
 TOP OF VALENCE BANDS -    BAND    160; K    1; EIG -2.4029966E-01 AU
 BOTTOM OF VIRTUAL BANDS - BAND    161; K   16; EIG -5.3728535E-03 AU
 INDIRECT ENERGY BAND GAP:   6.3913 eV
 BOTTOM OF VIRTUAL BANDS - BAND    161; K    1; EIG -1.6293386E-03 AU
 TTTTTTTTTTTTTTTTTTTTTTTTTTTTTT PDIG        TELAPSE       22.74 TCPU       20.81
 TTTTTTTTTTTTTTTTTTTTTTTTTTTTTT MOQGAD      TELAPSE       22.74 TCPU       20.81
 TTTTTTTTTTTTTTTTTTTTTTTTTTTTTT SHELLXN     TELAPSE       24.77 TCPU       22.83
 TTTTTTTTTTTTTTTTTTTTTTTTTTTTTT MONMO3      TELAPSE       26.04 TCPU       24.11
 NUMERICALLY INTEGRATED DENSITY    319.9998609279
 TTTTTTTTTTTTTTTTTTTTTTTTTTTTTT NUMDFT      TELAPSE       26.51 TCPU       24.57
 CYC   3 ETOT(AU) -2.057733967445E+03 DETOT -2.21E-02 tst  2.07E-04 PX  4.23E-02
 TTTTTTTTTTTTTTTTTTTTTTTTTTTTTT DIIS        TELAPSE       26.54 TCPU       24.61
 DIIS TEST: 0.79239E-01 AT SCF   CYCLE   3 - DIIS ACTIVE - HISTORY:     3 CYCLES
 TTTTTTTTTTTTTTTTTTTTTTTTTTTTTT FDIK        TELAPSE       27.14 TCPU       25.20
 INSULATING STATE
 TOP OF VALENCE BANDS -    BAND    160; K   10; EIG -2.5034630E-01 AU
 TOP OF VALENCE BANDS -    BAND    160; K    1; EIG -2.5047233E-01 AU
 BOTTOM OF VIRTUAL BANDS - BAND    161; K   16; EIG -1.2202790E-02 AU
 INDIRECT ENERGY BAND GAP:   6.4802 eV
 BOTTOM OF VIRTUAL BANDS - BAND    161; K    1; EIG -7.3693621E-03 AU
 TTTTTTTTTTTTTTTTTTTTTTTTTTTTTT PDIG        TELAPSE       27.49 TCPU       25.55
 TTTTTTTTTTTTTTTTTTTTTTTTTTTTTT MOQGAD      TELAPSE       27.49 TCPU       25.56
 TTTTTTTTTTTTTTTTTTTTTTTTTTTTTT SHELLXN     TELAPSE       29.51 TCPU       27.57
 TTTTTTTTTTTTTTTTTTTTTTTTTTTTTT MONMO3      TELAPSE       30.79 TCPU       28.85
 NUMERICALLY INTEGRATED DENSITY    319.9998631962
 TTTTTTTTTTTTTTTTTTTTTTTTTTTTTT NUMDFT      TELAPSE       31.25 TCPU       29.31
 CYC   4 ETOT(AU) -2.057751943549E+03 DETOT -1.80E-02 tst  1.17E-04 PX  3.22E-02
 TTTTTTTTTTTTTTTTTTTTTTTTTTTTTT DIIS        TELAPSE       31.29 TCPU       29.35
 DIIS TEST: 0.90017E-02 AT SCF   CYCLE   4 - DIIS ACTIVE - HISTORY:     4 CYCLES
 TTTTTTTTTTTTTTTTTTTTTTTTTTTTTT FDIK        TELAPSE       31.88 TCPU       29.94
 INSULATING STATE
 TOP OF VALENCE BANDS -    BAND    160; K   10; EIG -2.4799953E-01 AU
 TOP OF VALENCE BANDS -    BAND    160; K    1; EIG -2.4811129E-01 AU
 BOTTOM OF VIRTUAL BANDS - BAND    161; K   16; EIG -1.0136016E-02 AU
 INDIRECT ENERGY BAND GAP:   6.4726 eV
 BOTTOM OF VIRTUAL BANDS - BAND    161; K    1; EIG -6.0510156E-03 AU
 TTTTTTTTTTTTTTTTTTTTTTTTTTTTTT PDIG        TELAPSE       32.23 TCPU       30.29
 TTTTTTTTTTTTTTTTTTTTTTTTTTTTTT MOQGAD      TELAPSE       32.23 TCPU       30.29
 TTTTTTTTTTTTTTTTTTTTTTTTTTTTTT SHELLXN     TELAPSE       34.25 TCPU       32.30
 TTTTTTTTTTTTTTTTTTTTTTTTTTTTTT MONMO3      TELAPSE       35.53 TCPU       33.58
 NUMERICALLY INTEGRATED DENSITY    319.9998626930
 TTTTTTTTTTTTTTTTTTTTTTTTTTTTTT NUMDFT      TELAPSE       35.78 TCPU       33.84
 CYC   5 ETOT(AU) -2.057754075602E+03 DETOT -2.13E-03 tst  9.29E-06 PX  8.07E-03
 TTTTTTTTTTTTTTTTTTTTTTTTTTTTTT DIIS        TELAPSE       35.81 TCPU       33.87
 DIIS TEST: 0.80528E-03 AT SCF   CYCLE   5 - DIIS ACTIVE - HISTORY:     5 CYCLES
 TTTTTTTTTTTTTTTTTTTTTTTTTTTTTT FDIK        TELAPSE       36.40 TCPU       34.45
 INSULATING STATE
 TOP OF VALENCE BANDS -    BAND    160; K   10; EIG -2.4768839E-01 AU
 TOP OF VALENCE BANDS -    BAND    160; K    1; EIG -2.4780450E-01 AU
 BOTTOM OF VIRTUAL BANDS - BAND    161; K   16; EIG -9.8539970E-03 AU
 INDIRECT ENERGY BAND GAP:   6.4718 eV
 BOTTOM OF VIRTUAL BANDS - BAND    161; K    1; EIG -5.3928258E-03 AU
 TTTTTTTTTTTTTTTTTTTTTTTTTTTTTT PDIG        TELAPSE       36.75 TCPU       34.80
 TTTTTTTTTTTTTTTTTTTTTTTTTTTTTT MOQGAD      TELAPSE       36.75 TCPU       34.80
 TTTTTTTTTTTTTTTTTTTTTTTTTTTTTT SHELLXN     TELAPSE       38.76 TCPU       36.81
 TTTTTTTTTTTTTTTTTTTTTTTTTTTTTT MONMO3      TELAPSE       40.05 TCPU       38.09
 NUMERICALLY INTEGRATED DENSITY    319.9998625626
 TTTTTTTTTTTTTTTTTTTTTTTTTTTTTT NUMDFT      TELAPSE       40.51 TCPU       38.56
 CYC   6 ETOT(AU) -2.057754258146E+03 DETOT -1.83E-04 tst  1.39E-06 PX  1.71E-03
 TTTTTTTTTTTTTTTTTTTTTTTTTTTTTT DIIS        TELAPSE       40.56 TCPU       38.60
 DIIS TEST: 0.48156E-04 AT SCF   CYCLE   6 - DIIS ACTIVE - HISTORY:     6 CYCLES
 TTTTTTTTTTTTTTTTTTTTTTTTTTTTTT FDIK        TELAPSE       41.14 TCPU       39.18
 INSULATING STATE
 TOP OF VALENCE BANDS -    BAND    160; K   10; EIG -2.4761717E-01 AU
 TOP OF VALENCE BANDS -    BAND    160; K    1; EIG -2.4772804E-01 AU
 BOTTOM OF VIRTUAL BANDS - BAND    161; K   16; EIG -9.8325143E-03 AU
 INDIRECT ENERGY BAND GAP:   6.4705 eV
 BOTTOM OF VIRTUAL BANDS - BAND    161; K    1; EIG -5.2862089E-03 AU
 TTTTTTTTTTTTTTTTTTTTTTTTTTTTTT PDIG        TELAPSE       41.49 TCPU       39.53
 TTTTTTTTTTTTTTTTTTTTTTTTTTTTTT MOQGAD      TELAPSE       41.49 TCPU       39.54
 TTTTTTTTTTTTTTTTTTTTTTTTTTTTTT SHELLXN     TELAPSE       43.53 TCPU       41.56
 TTTTTTTTTTTTTTTTTTTTTTTTTTTTTT MONMO3      TELAPSE       44.80 TCPU       42.83
 NUMERICALLY INTEGRATED DENSITY    319.9998625210
 TTTTTTTTTTTTTTTTTTTTTTTTTTTTTT NUMDFT      TELAPSE       45.05 TCPU       43.08
 CYC   7 ETOT(AU) -2.057754268318E+03 DETOT -1.02E-05 tst  2.11E-07 PX  4.94E-04
 TTTTTTTTTTTTTTTTTTTTTTTTTTTTTT DIIS        TELAPSE       45.08 TCPU       43.11
 DIIS TEST: 0.78443E-05 AT SCF   CYCLE   7 - DIIS ACTIVE - HISTORY:     7 CYCLES
 TTTTTTTTTTTTTTTTTTTTTTTTTTTTTT FDIK        TELAPSE       45.67 TCPU       43.69
 INSULATING STATE
 TOP OF VALENCE BANDS -    BAND    160; K   10; EIG -2.4765316E-01 AU
 TOP OF VALENCE BANDS -    BAND    160; K    1; EIG -2.4776640E-01 AU
 BOTTOM OF VIRTUAL BANDS - BAND    161; K   16; EIG -9.8383290E-03 AU
 INDIRECT ENERGY BAND GAP:   6.4713 eV
 BOTTOM OF VIRTUAL BANDS - BAND    161; K    1; EIG -5.3347599E-03 AU
 TTTTTTTTTTTTTTTTTTTTTTTTTTTTTT PDIG        TELAPSE       46.02 TCPU       44.05
 TTTTTTTTTTTTTTTTTTTTTTTTTTTTTT MOQGAD      TELAPSE       46.02 TCPU       44.05
 TTTTTTTTTTTTTTTTTTTTTTTTTTTTTT SHELLXN     TELAPSE       48.11 TCPU       46.05
 TTTTTTTTTTTTTTTTTTTTTTTTTTTTTT MONMO3      TELAPSE       49.32 TCPU       47.26
 NUMERICALLY INTEGRATED DENSITY    319.9998625228
 TTTTTTTTTTTTTTTTTTTTTTTTTTTTTT NUMDFT      TELAPSE       49.78 TCPU       47.72
 CYC   8 ETOT(AU) -2.057754270724E+03 DETOT -2.41E-06 tst  1.56E-08 PX  1.83E-04
 TTTTTTTTTTTTTTTTTTTTTTTTTTTTTT DIIS        TELAPSE       49.83 TCPU       47.77
 DIIS TEST: 0.29463E-06 AT SCF   CYCLE   8 - DIIS ACTIVE - HISTORY:     8 CYCLES
 TTTTTTTTTTTTTTTTTTTTTTTTTTTTTT FDIK        TELAPSE       50.42 TCPU       48.35
 INSULATING STATE
 TOP OF VALENCE BANDS -    BAND    160; K   10; EIG -2.4766309E-01 AU
 TOP OF VALENCE BANDS -    BAND    160; K    1; EIG -2.4777562E-01 AU
 BOTTOM OF VIRTUAL BANDS - BAND    161; K   16; EIG -9.8434834E-03 AU
 INDIRECT ENERGY BAND GAP:   6.4714 eV
 BOTTOM OF VIRTUAL BANDS - BAND    161; K    1; EIG -5.3387040E-03 AU
 TTTTTTTTTTTTTTTTTTTTTTTTTTTTTT PDIG        TELAPSE       50.77 TCPU       48.70
 TTTTTTTTTTTTTTTTTTTTTTTTTTTTTT MOQGAD      TELAPSE       50.77 TCPU       48.71
 TTTTTTTTTTTTTTTTTTTTTTTTTTTTTT SHELLXN     TELAPSE       52.78 TCPU       50.72
 TTTTTTTTTTTTTTTTTTTTTTTTTTTTTT MONMO3      TELAPSE       54.09 TCPU       52.02
 NUMERICALLY INTEGRATED DENSITY    319.9998625236
 TTTTTTTTTTTTTTTTTTTTTTTTTTTTTT NUMDFT      TELAPSE       54.55 TCPU       52.48
 CYC   9 ETOT(AU) -2.057754270979E+03 DETOT -2.55E-07 tst  1.33E-09 PX  5.05E-05
 TTTTTTTTTTTTTTTTTTTTTTTTTTTTTT DIIS        TELAPSE       54.61 TCPU       52.55
 DIIS TEST: 0.70676E-07 AT SCF   CYCLE   9 - DIIS ACTIVE - HISTORY:     9 CYCLES
 TTTTTTTTTTTTTTTTTTTTTTTTTTTTTT FDIK        TELAPSE       55.21 TCPU       53.14
 INSULATING STATE
 TOP OF VALENCE BANDS -    BAND    160; K   10; EIG -2.4766173E-01 AU
 TOP OF VALENCE BANDS -    BAND    160; K    1; EIG -2.4777457E-01 AU
 BOTTOM OF VIRTUAL BANDS - BAND    161; K   16; EIG -9.8485133E-03 AU
 INDIRECT ENERGY BAND GAP:   6.4712 eV
 BOTTOM OF VIRTUAL BANDS - BAND    161; K    1; EIG -5.3362370E-03 AU
 TTTTTTTTTTTTTTTTTTTTTTTTTTTTTT PDIG        TELAPSE       55.57 TCPU       53.50
 TTTTTTTTTTTTTTTTTTTTTTTTTTTTTT MOQGAD      TELAPSE       55.57 TCPU       53.50
 TTTTTTTTTTTTTTTTTTTTTTTTTTTTTT SHELLXN     TELAPSE       57.59 TCPU       55.52
 TTTTTTTTTTTTTTTTTTTTTTTTTTTTTT MONMO3      TELAPSE       58.87 TCPU       56.80
 NUMERICALLY INTEGRATED DENSITY    319.9998625225
 TTTTTTTTTTTTTTTTTTTTTTTTTTTTTT NUMDFT      TELAPSE       59.33 TCPU       57.26
 CYC  10 ETOT(AU) -2.057754271002E+03 DETOT -2.25E-08 tst  1.02E-10 PX  2.56E-05
 TTTTTTTTTTTTTTTTTTTTTTTTTTTTTT DIIS        TELAPSE       59.45 TCPU       57.38
 DIIS TEST: 0.53601E-08 AT SCF   CYCLE  10 - DIIS ACTIVE - HISTORY:    10 CYCLES
 TTTTTTTTTTTTTTTTTTTTTTTTTTTTTT FDIK        TELAPSE       60.04 TCPU       57.96
 INSULATING STATE
 TOP OF VALENCE BANDS -    BAND    160; K   10; EIG -2.4766163E-01 AU
 TOP OF VALENCE BANDS -    BAND    160; K    1; EIG -2.4777443E-01 AU
 BOTTOM OF VIRTUAL BANDS - BAND    161; K   16; EIG -9.8464034E-03 AU
 INDIRECT ENERGY BAND GAP:   6.4713 eV
 BOTTOM OF VIRTUAL BANDS - BAND    161; K    1; EIG -5.3359745E-03 AU
 TTTTTTTTTTTTTTTTTTTTTTTTTTTTTT PDIG        TELAPSE       60.39 TCPU       58.31
 TTTTTTTTTTTTTTTTTTTTTTTTTTTTTT MOQGAD      TELAPSE       60.39 TCPU       58.32
 TTTTTTTTTTTTTTTTTTTTTTTTTTTTTT SHELLXN     TELAPSE       62.40 TCPU       60.33
 TTTTTTTTTTTTTTTTTTTTTTTTTTTTTT MONMO3      TELAPSE       63.69 TCPU       61.61
 NUMERICALLY INTEGRATED DENSITY    319.9998625222
 TTTTTTTTTTTTTTTTTTTTTTTTTTTTTT NUMDFT      TELAPSE       64.04 TCPU       61.96
 CYC  11 ETOT(AU) -2.057754271017E+03 DETOT -1.55E-08 tst  1.13E-11 PX  5.77E-06
 TTTTTTTTTTTTTTTTTTTTTTTTTTTTTT DIIS        TELAPSE       64.07 TCPU       61.99
 DIIS TEST: 0.42995E-09 AT SCF   CYCLE  11 - DIIS ACTIVE - HISTORY:    11 CYCLES
 TTTTTTTTTTTTTTTTTTTTTTTTTTTTTT FDIK        TELAPSE       64.66 TCPU       62.58
 INSULATING STATE
 TOP OF VALENCE BANDS -    BAND    160; K   10; EIG -2.4766121E-01 AU
 TOP OF VALENCE BANDS -    BAND    160; K    1; EIG -2.4777404E-01 AU
 BOTTOM OF VIRTUAL BANDS - BAND    161; K   16; EIG -9.8464064E-03 AU
 INDIRECT ENERGY BAND GAP:   6.4713 eV
 BOTTOM OF VIRTUAL BANDS - BAND    161; K    1; EIG -5.3357616E-03 AU
 TTTTTTTTTTTTTTTTTTTTTTTTTTTTTT PDIG        TELAPSE       65.01 TCPU       62.93
 TTTTTTTTTTTTTTTTTTTTTTTTTTTTTT MOQGAD      TELAPSE       65.02 TCPU       62.94
 TTTTTTTTTTTTTTTTTTTTTTTTTTTTTT SHELLXN     TELAPSE       67.04 TCPU       64.95
 TTTTTTTTTTTTTTTTTTTTTTTTTTTTTT MONMO3      TELAPSE       68.32 TCPU       66.23
 NUMERICALLY INTEGRATED DENSITY    319.9998625225
 TTTTTTTTTTTTTTTTTTTTTTTTTTTTTT NUMDFT      TELAPSE       68.70 TCPU       66.61
 CYC  12 ETOT(AU) -2.057754271015E+03 DETOT  1.95E-09 tst  1.12E-12 PX  1.57E-06
 TTTTTTTTTTTTTTTTTTTTTTTTTTTTTT DIIS        TELAPSE       68.74 TCPU       66.65
 DIIS TEST: 0.36664E-10 AT SCF   CYCLE  12 - DIIS ACTIVE - HISTORY:    12 CYCLES
 TTTTTTTTTTTTTTTTTTTTTTTTTTTTTT FDIK        TELAPSE       69.32 TCPU       67.23
 INSULATING STATE
 TOP OF VALENCE BANDS -    BAND    160; K   10; EIG -2.4766110E-01 AU
 TOP OF VALENCE BANDS -    BAND    160; K    1; EIG -2.4777392E-01 AU
 BOTTOM OF VIRTUAL BANDS - BAND    161; K   16; EIG -9.8462478E-03 AU
 INDIRECT ENERGY BAND GAP:   6.4713 eV
 BOTTOM OF VIRTUAL BANDS - BAND    161; K    1; EIG -5.3355803E-03 AU
 TTTTTTTTTTTTTTTTTTTTTTTTTTTTTT PDIG        TELAPSE       69.67 TCPU       67.58
 TTTTTTTTTTTTTTTTTTTTTTTTTTTTTT MOQGAD      TELAPSE       69.67 TCPU       67.58
 TTTTTTTTTTTTTTTTTTTTTTTTTTTTTT SHELLXN     TELAPSE       71.69 TCPU       69.60
 TTTTTTTTTTTTTTTTTTTTTTTTTTTTTT MONMO3      TELAPSE       72.97 TCPU       70.88
 NUMERICALLY INTEGRATED DENSITY    319.9998625224
 TTTTTTTTTTTTTTTTTTTTTTTTTTTTTT NUMDFT      TELAPSE       73.32 TCPU       71.22
 CYC  13 ETOT(AU) -2.057754271015E+03 DETOT  1.86E-11 tst  1.43E-13 PX  4.50E-07
 TTTTTTTTTTTTTTTTTTTTTTTTTTTTTT DIIS        TELAPSE       73.35 TCPU       71.26
 DIIS TEST: 0.20452E-11 AT SCF   CYCLE  13 - DIIS ACTIVE - HISTORY:    13 CYCLES
 TTTTTTTTTTTTTTTTTTTTTTTTTTTTTT FDIK        TELAPSE       73.95 TCPU       71.85
 INSULATING STATE
[...]
Note: The following floating-point exceptions are signalling: IEEE_UNDERFLOW_FLAG IEEE_DENORMAL
Note: The following floating-point exceptions are signalling: IEEE_UNDERFLOW_FLAG IEEE_DENORMAL
Note: The following floating-point exceptions are signalling: IEEE_UNDERFLOW_FLAG IEEE_DENORMAL
Note: The following floating-point exceptions are signalling: IEEE_UNDERFLOW_FLAG IEEE_DENORMAL
Note: The following floating-point exceptions are signalling: IEEE_UNDERFLOW_FLAG IEEE_DENORMAL
Note: The following floating-point exceptions are signalling: IEEE_UNDERFLOW_FLAG IEEE_DENORMAL
Note: The following floating-point exceptions are signalling: IEEE_UNDERFLOW_FLAG IEEE_DENORMAL
Note: The following floating-point exceptions are signalling: IEEE_UNDERFLOW_FLAG IEEE_DENORMAL
Note: The following floating-point exceptions are signalling: IEEE_UNDERFLOW_FLAG IEEE_DENORMAL
Note: The following floating-point exceptions are signalling: IEEE_UNDERFLOW_FLAG IEEE_DENORMAL
Note: The following floating-point exceptions are signalling: IEEE_UNDERFLOW_FLAG IEEE_DENORMAL
Note: The following floating-point exceptions are signalling: IEEE_UNDERFLOW_FLAG IEEE_DENORMAL
Note: The following floating-point exceptions are signalling: IEEE_UNDERFLOW_FLAG IEEE_DENORMAL
Note: The following floating-point exceptions are signalling: IEEE_UNDERFLOW_FLAG IEEE_DENORMAL
Note: The following floating-point exceptions are signalling: IEEE_UNDERFLOW_FLAG IEEE_DENORMAL
Note: The following floating-point exceptions are signalling: IEEE_UNDERFLOW_FLAG IEEE_DENORMAL
Note: The following floating-point exceptions are signalling: IEEE_UNDERFLOW_FLAG IEEE_DENORMAL
Note: The following floating-point exceptions are signalling: IEEE_UNDERFLOW_FLAG IEEE_DENORMAL
Note: The following floating-point exceptions are signalling: IEEE_UNDERFLOW_FLAG IEEE_DENORMAL
Note: The following floating-point exceptions are signalling: IEEE_UNDERFLOW_FLAG IEEE_DENORMAL
Note: The following floating-point exceptions are signalling: IEEE_UNDERFLOW_FLAG IEEE_DENORMAL
Note: The following floating-point exceptions are signalling: IEEE_UNDERFLOW_FLAG IEEE_DENORMAL
Note: The following floating-point exceptions are signalling: IEEE_UNDERFLOW_FLAG IEEE_DENORMAL
Note: The following floating-point exceptions are signalling: IEEE_UNDERFLOW_FLAG IEEE_DENORMAL
Note: The following floating-point exceptions are signalling: IEEE_UNDERFLOW_FLAG IEEE_DENORMAL
Note: The following floating-point exceptions are signalling: IEEE_UNDERFLOW_FLAG IEEE_DENORMAL
Note: The following floating-point exceptions are signalling: IEEE_UNDERFLOW_FLAG IEEE_DENORMAL
Note: The following floating-point exceptions are signalling: IEEE_UNDERFLOW_FLAG IEEE_DENORMAL
Note: The following floating-point exceptions are signalling: IEEE_UNDERFLOW_FLAG IEEE_DENORMAL
Note: The following floating-point exceptions are signalling: IEEE_UNDERFLOW_FLAG IEEE_DENORMAL
Note: The following floating-point exceptions are signalling: IEEE_UNDERFLOW_FLAG IEEE_DENORMAL
Note: The following floating-point exceptions are signalling: IEEE_UNDERFLOW_FLAG IEEE_DENORMAL
Note: The following floating-point exceptions are signalling: IEEE_UNDERFLOW_FLAG IEEE_DENORMAL
Note: The following floating-point exceptions are signalling: IEEE_UNDERFLOW_FLAG IEEE_DENORMAL
Note: The following floating-point exceptions are signalling: IEEE_UNDERFLOW_FLAG IEEE_DENORMAL
Note: The following floating-point exceptions are signalling: IEEE_UNDERFLOW_FLAG IEEE_DENORMAL
Note: The following floating-point exceptions are signalling: IEEE_UNDERFLOW_FLAG IEEE_DENORMAL
Note: The following floating-point exceptions are signalling: IEEE_UNDERFLOW_FLAG IEEE_DENORMAL
Note: The following floating-point exceptions are signalling: IEEE_UNDERFLOW_FLAG IEEE_DENORMAL
Note: The following floating-point exceptions are signalling: IEEE_UNDERFLOW_FLAG IEEE_DENORMAL
Note: The following floating-point exceptions are signalling: IEEE_UNDERFLOW_FLAG IEEE_DENORMAL
Note: The following floating-point exceptions are signalling: IEEE_UNDERFLOW_FLAG IEEE_DENORMAL
Note: The following floating-point exceptions are signalling: IEEE_UNDERFLOW_FLAG IEEE_DENORMAL
Note: The following floating-point exceptions are signalling: IEEE_UNDERFLOW_FLAG IEEE_DENORMAL
Note: The following floating-point exceptions are signalling: IEEE_UNDERFLOW_FLAG IEEE_DENORMAL
Note: The following floating-point exceptions are signalling: IEEE_UNDERFLOW_FLAG IEEE_DENORMAL
Note: The following floating-point exceptions are signalling: IEEE_UNDERFLOW_FLAG IEEE_DENORMAL
Note: The following floating-point exceptions are signalling: IEEE_UNDERFLOW_FLAG IEEE_DENORMAL
Note: The following floating-point exceptions are signalling: IEEE_UNDERFLOW_FLAG IEEE_DENORMAL
Note: The following floating-point exceptions are signalling: IEEE_UNDERFLOW_FLAG IEEE_DENORMAL
Note: The following floating-point exceptions are signalling: IEEE_UNDERFLOW_FLAG IEEE_DENORMAL
Note: The following floating-point exceptions are signalling: IEEE_UNDERFLOW_FLAG IEEE_DENORMAL
Note: The following floating-point exceptions are signalling: IEEE_UNDERFLOW_FLAG IEEE_DENORMAL
Note: The following floating-point exceptions are signalling: IEEE_UNDERFLOW_FLAG IEEE_DENORMAL
Note: The following floating-point exceptions are signalling: IEEE_UNDERFLOW_FLAG IEEE_DENORMAL
Note: The following floating-point exceptions are signalling: IEEE_UNDERFLOW_FLAG IEEE_DENORMAL
Note: The following floating-point exceptions are signalling: IEEE_UNDERFLOW_FLAG IEEE_DENORMAL
Note: The following floating-point exceptions are signalling: IEEE_UNDERFLOW_FLAG IEEE_DENORMAL
Note: The following floating-point exceptions are signalling: IEEE_UNDERFLOW_FLAG IEEE_DENORMAL
Note: The following floating-point exceptions are signalling: IEEE_UNDERFLOW_FLAG IEEE_DENORMAL
Note: The following floating-point exceptions are signalling: IEEE_UNDERFLOW_FLAG IEEE_DENORMAL
Note: The following floating-point exceptions are signalling: IEEE_UNDERFLOW_FLAG IEEE_DENORMAL
Note: The following floating-point exceptions are signalling: IEEE_UNDERFLOW_FLAG IEEE_DENORMAL
Note: The following floating-point exceptions are signalling: IEEE_UNDERFLOW_FLAG IEEE_DENORMAL
Note: The following floating-point exceptions are signalling: IEEE_UNDERFLOW_FLAG IEEE_DENORMAL
Note: The following floating-point exceptions are signalling: IEEE_UNDERFLOW_FLAG IEEE_DENORMAL
Note: The following floating-point exceptions are signalling: IEEE_UNDERFLOW_FLAG IEEE_DENORMAL
Note: The following floating-point exceptions are signalling: IEEE_UNDERFLOW_FLAG IEEE_DENORMAL
Note: The following floating-point exceptions are signalling: IEEE_UNDERFLOW_FLAG IEEE_DENORMAL
Note: The following floating-point exceptions are signalling: IEEE_UNDERFLOW_FLAG IEEE_DENORMAL
Note: The following floating-point exceptions are signalling: IEEE_UNDERFLOW_FLAG IEEE_DENORMAL
Note: The following floating-point exceptions are signalling: IEEE_UNDERFLOW_FLAG IEEE_DENORMAL
Note: The following floating-point exceptions are signalling: IEEE_UNDERFLOW_FLAG IEEE_DENORMAL
Note: The following floating-point exceptions are signalling: IEEE_UNDERFLOW_FLAG IEEE_DENORMAL
Note: The following floating-point exceptions are signalling: IEEE_UNDERFLOW_FLAG IEEE_DENORMAL
Note: The following floating-point exceptions are signalling: IEEE_UNDERFLOW_FLAG IEEE_DENORMAL
Note: The following floating-point exceptions are signalling: IEEE_UNDERFLOW_FLAG IEEE_DENORMAL
Note: The following floating-point exceptions are signalling: IEEE_UNDERFLOW_FLAG IEEE_DENORMAL
Note: The following floating-point exceptions are signalling: IEEE_UNDERFLOW_FLAG IEEE_DENORMAL
Note: The following floating-point exceptions are signalling: IEEE_UNDERFLOW_FLAG IEEE_DENORMAL
Note: The following floating-point exceptions are signalling: IEEE_UNDERFLOW_FLAG IEEE_DENORMAL
Note: The following floating-point exceptions are signalling: IEEE_UNDERFLOW_FLAG IEEE_DENORMAL
Note: The following floating-point exceptions are signalling: IEEE_UNDERFLOW_FLAG IEEE_DENORMAL
Note: The following floating-point exceptions are signalling: IEEE_UNDERFLOW_FLAG IEEE_DENORMAL
Note: The following floating-point exceptions are signalling: IEEE_UNDERFLOW_FLAG IEEE_DENORMAL
Note: The following floating-point exceptions are signalling: IEEE_UNDERFLOW_FLAG IEEE_DENORMAL
Note: The following floating-point exceptions are signalling: IEEE_UNDERFLOW_FLAG IEEE_DENORMAL
Note: The following floating-point exceptions are signalling: IEEE_UNDERFLOW_FLAG IEEE_DENORMAL
Note: The following floating-point exceptions are signalling: IEEE_UNDERFLOW_FLAG IEEE_DENORMAL
Note: The following floating-point exceptions are signalling: IEEE_UNDERFLOW_FLAG IEEE_DENORMAL
Note: The following floating-point exceptions are signalling: IEEE_UNDERFLOW_FLAG IEEE_DENORMAL
Note: The following floating-point exceptions are signalling: IEEE_UNDERFLOW_FLAG IEEE_DENORMAL
Note: The following floating-point exceptions are signalling: IEEE_UNDERFLOW_FLAG IEEE_DENORMAL
Note: The following floating-point exceptions are signalling: IEEE_UNDERFLOW_FLAG IEEE_DENORMAL
Note: The following floating-point exceptions are signalling: IEEE_UNDERFLOW_FLAG IEEE_DENORMAL
Note: The following floating-point exceptions are signalling: IEEE_UNDERFLOW_FLAG IEEE_DENORMAL
Note: The following floating-point exceptions are signalling: IEEE_UNDERFLOW_FLAG IEEE_DENORMAL
Note: The following floating-point exceptions are signalling: IEEE_UNDERFLOW_FLAG IEEE_DENORMAL
Note: The following floating-point exceptions are signalling: IEEE_UNDERFLOW_FLAG IEEE_DENORMAL
Note: The following floating-point exceptions are signalling: IEEE_UNDERFLOW_FLAG IEEE_DENORMAL
Note: The following floating-point exceptions are signalling: IEEE_UNDERFLOW_FLAG IEEE_DENORMAL
Note: The following floating-point exceptions are signalling: IEEE_UNDERFLOW_FLAG IEEE_DENORMAL
Note: The following floating-point exceptions are signalling: IEEE_UNDERFLOW_FLAG IEEE_DENORMAL
Note: The following floating-point exceptions are signalling: IEEE_UNDERFLOW_FLAG IEEE_DENORMAL
Note: The following floating-point exceptions are signalling: IEEE_UNDERFLOW_FLAG IEEE_DENORMAL
Note: The following floating-point exceptions are signalling: IEEE_UNDERFLOW_FLAG IEEE_DENORMAL
Note: The following floating-point exceptions are signalling: IEEE_UNDERFLOW_FLAG IEEE_DENORMAL
Note: The following floating-point exceptions are signalling: IEEE_UNDERFLOW_FLAG IEEE_DENORMAL
Note: The following floating-point exceptions are signalling: IEEE_UNDERFLOW_FLAG IEEE_DENORMAL
Note: The following floating-point exceptions are signalling: IEEE_UNDERFLOW_FLAG IEEE_DENORMAL
Note: The following floating-point exceptions are signalling: IEEE_UNDERFLOW_FLAG IEEE_DENORMAL
Note: The following floating-point exceptions are signalling: IEEE_UNDERFLOW_FLAG IEEE_DENORMAL
Note: The following floating-point exceptions are signalling: IEEE_UNDERFLOW_FLAG IEEE_DENORMAL
Note: The following floating-point exceptions are signalling: IEEE_UNDERFLOW_FLAG IEEE_DENORMAL
Note: The following floating-point exceptions are signalling: IEEE_UNDERFLOW_FLAG IEEE_DENORMAL
Note: The following floating-point exceptions are signalling: IEEE_UNDERFLOW_FLAG IEEE_DENORMAL
Note: The following floating-point exceptions are signalling: IEEE_UNDERFLOW_FLAG IEEE_DENORMAL
Note: The following floating-point exceptions are signalling: IEEE_UNDERFLOW_FLAG IEEE_DENORMAL
Note: The following floating-point exceptions are signalling: IEEE_UNDERFLOW_FLAG IEEE_DENORMAL
Note: The following floating-point exceptions are signalling: IEEE_UNDERFLOW_FLAG IEEE_DENORMAL
Note: The following floating-point exceptions are signalling: IEEE_UNDERFLOW_FLAG IEEE_DENORMAL
Note: The following floating-point exceptions are signalling: IEEE_UNDERFLOW_FLAG IEEE_DENORMAL
Note: The following floating-point exceptions are signalling: IEEE_UNDERFLOW_FLAG IEEE_DENORMAL
Note: The following floating-point exceptions are signalling: IEEE_UNDERFLOW_FLAG IEEE_DENORMAL
Note: The following floating-point exceptions are signalling: IEEE_UNDERFLOW_FLAG IEEE_DENORMAL
Note: The following floating-point exceptions are signalling: IEEE_UNDERFLOW_FLAG IEEE_DENORMAL
Note: The following floating-point exceptions are signalling: IEEE_UNDERFLOW_FLAG IEEE_DENORMAL
Note: The following floating-point exceptions are signalling: IEEE_UNDERFLOW_FLAG IEEE_DENORMAL
Note: The following floating-point exceptions are signalling: IEEE_UNDERFLOW_FLAG IEEE_DENORMAL
Note: The following floating-point exceptions are signalling: IEEE_UNDERFLOW_FLAG IEEE_DENORMAL
Note: The following floating-point exceptions are signalling: IEEE_UNDERFLOW_FLAG IEEE_DENORMAL
Note: The following floating-point exceptions are signalling: IEEE_UNDERFLOW_FLAG IEEE_DENORMAL
Note: The following floating-point exceptions are signalling: IEEE_UNDERFLOW_FLAG IEEE_DENORMAL
Note: The following floating-point exceptions are signalling: IEEE_UNDERFLOW_FLAG IEEE_DENORMAL
Note: The following floating-point exceptions are signalling: IEEE_UNDERFLOW_FLAG IEEE_DENORMAL
Note: The following floating-point exceptions are signalling: IEEE_UNDERFLOW_FLAG IEEE_DENORMAL
Note: The following floating-point exceptions are signalling: IEEE_UNDERFLOW_FLAG IEEE_DENORMAL
Note: The following floating-point exceptions are signalling: IEEE_UNDERFLOW_FLAG IEEE_DENORMAL
Note: The following floating-point exceptions are signalling: IEEE_UNDERFLOW_FLAG IEEE_DENORMAL
Note: The following floating-point exceptions are signalling: IEEE_UNDERFLOW_FLAG IEEE_DENORMAL
Note: The following floating-point exceptions are signalling: IEEE_UNDERFLOW_FLAG IEEE_DENORMAL
Note: The following floating-point exceptions are signalling: IEEE_UNDERFLOW_FLAG IEEE_DENORMAL
Note: The following floating-point exceptions are signalling: IEEE_UNDERFLOW_FLAG IEEE_DENORMAL
Note: The following floating-point exceptions are signalling: IEEE_UNDERFLOW_FLAG IEEE_DENORMAL
Note: The following floating-point exceptions are signalling: IEEE_UNDERFLOW_FLAG IEEE_DENORMAL
Note: The following floating-point exceptions are signalling: IEEE_UNDERFLOW_FLAG IEEE_DENORMAL
Note: The following floating-point exceptions are signalling: IEEE_UNDERFLOW_FLAG IEEE_DENORMAL
Note: The following floating-point exceptions are signalling: IEEE_UNDERFLOW_FLAG IEEE_DENORMAL
Note: The following floating-point exceptions are signalling: IEEE_UNDERFLOW_FLAG IEEE_DENORMAL
Note: The following floating-point exceptions are signalling: IEEE_UNDERFLOW_FLAG IEEE_DENORMAL
Note: The following floating-point exceptions are signalling: IEEE_UNDERFLOW_FLAG IEEE_DENORMAL
Note: The following floating-point exceptions are signalling: IEEE_UNDERFLOW_FLAG IEEE_DENORMAL
Note: The following floating-point exceptions are signalling: IEEE_UNDERFLOW_FLAG IEEE_DENORMAL
Note: The following floating-point exceptions are signalling: IEEE_UNDERFLOW_FLAG IEEE_DENORMAL
Note: The following floating-point exceptions are signalling: IEEE_UNDERFLOW_FLAG IEEE_DENORMAL
Note: The following floating-point exceptions are signalling: IEEE_UNDERFLOW_FLAG IEEE_DENORMAL
Note: The following floating-point exceptions are signalling: IEEE_UNDERFLOW_FLAG IEEE_DENORMAL
Note: The following floating-point exceptions are signalling: IEEE_UNDERFLOW_FLAG IEEE_DENORMAL
Note: The following floating-point exceptions are signalling: IEEE_UNDERFLOW_FLAG IEEE_DENORMAL
Note: The following floating-point exceptions are signalling: IEEE_UNDERFLOW_FLAG IEEE_DENORMAL
Note: The following floating-point exceptions are signalling: IEEE_UNDERFLOW_FLAG IEEE_DENORMAL
Note: The following floating-point exceptions are signalling: IEEE_UNDERFLOW_FLAG IEEE_DENORMAL
Note: The following floating-point exceptions are signalling: IEEE_UNDERFLOW_FLAG IEEE_DENORMAL
Note: The following floating-point exceptions are signalling: IEEE_UNDERFLOW_FLAG IEEE_DENORMAL
Note: The following floating-point exceptions are signalling: IEEE_UNDERFLOW_FLAG IEEE_DENORMAL
Note: The following floating-point exceptions are signalling: IEEE_UNDERFLOW_FLAG IEEE_DENORMAL
Note: The following floating-point exceptions are signalling: IEEE_UNDERFLOW_FLAG IEEE_DENORMAL
Note: The following floating-point exceptions are signalling: IEEE_UNDERFLOW_FLAG IEEE_DENORMAL
Note: The following floating-point exceptions are signalling: IEEE_UNDERFLOW_FLAG IEEE_DENORMAL
Note: The following floating-point exceptions are signalling: IEEE_UNDERFLOW_FLAG IEEE_DENORMAL
Note: The following floating-point exceptions are signalling: IEEE_UNDERFLOW_FLAG IEEE_DENORMAL
Note: The following floating-point exceptions are signalling: IEEE_UNDERFLOW_FLAG IEEE_DENORMAL
Note: The following floating-point exceptions are signalling: IEEE_UNDERFLOW_FLAG IEEE_DENORMAL
Note: The following floating-point exceptions are signalling: IEEE_UNDERFLOW_FLAG IEEE_DENORMAL
Note: The following floating-point exceptions are signalling: IEEE_UNDERFLOW_FLAG IEEE_DENORMAL
Note: The following floating-point exceptions are signalling: IEEE_UNDERFLOW_FLAG IEEE_DENORMAL
Note: The following floating-point exceptions are signalling: IEEE_UNDERFLOW_FLAG IEEE_DENORMAL
Note: The following floating-point exceptions are signalling: IEEE_UNDERFLOW_FLAG IEEE_DENORMAL
Note: The following floating-point exceptions are signalling: IEEE_UNDERFLOW_FLAG IEEE_DENORMAL
Note: The following floating-point exceptions are signalling: IEEE_UNDERFLOW_FLAG IEEE_DENORMAL
Note: The following floating-point exceptions are signalling: IEEE_UNDERFLOW_FLAG IEEE_DENORMAL
Note: The following floating-point exceptions are signalling: IEEE_UNDERFLOW_FLAG IEEE_DENORMAL
Note: The following floating-point exceptions are signalling: IEEE_UNDERFLOW_FLAG IEEE_DENORMAL
Note: The following floating-point exceptions are signalling: IEEE_UNDERFLOW_FLAG IEEE_DENORMAL
Note: The following floating-point exceptions are signalling: IEEE_UNDERFLOW_FLAG IEEE_DENORMAL
Note: The following floating-point exceptions are signalling: IEEE_UNDERFLOW_FLAG IEEE_DENORMAL
Note: The following floating-point exceptions are signalling: IEEE_UNDERFLOW_FLAG IEEE_DENORMAL
Note: The following floating-point exceptions are signalling: IEEE_UNDERFLOW_FLAG IEEE_DENORMAL
Note: The following floating-point exceptions are signalling: IEEE_UNDERFLOW_FLAG IEEE_DENORMAL
Note: The following floating-point exceptions are signalling: IEEE_UNDERFLOW_FLAG IEEE_DENORMAL
Note: The following floating-point exceptions are signalling: IEEE_UNDERFLOW_FLAG IEEE_DENORMAL
Note: The following floating-point exceptions are signalling: IEEE_UNDERFLOW_FLAG IEEE_DENORMAL
Note: The following floating-point exceptions are signalling: IEEE_UNDERFLOW_FLAG IEEE_DENORMAL
Note: The following floating-point exceptions are signalling: IEEE_UNDERFLOW_FLAG IEEE_DENORMAL
Note: The following floating-point exceptions are signalling: IEEE_UNDERFLOW_FLAG IEEE_DENORMAL
Note: The following floating-point exceptions are signalling: IEEE_UNDERFLOW_FLAG IEEE_DENORMAL
Note: The following floating-point exceptions are signalling: IEEE_UNDERFLOW_FLAG IEEE_DENORMAL
Note: The following floating-point exceptions are signalling: IEEE_UNDERFLOW_FLAG IEEE_DENORMAL
Note: The following floating-point exceptions are signalling: IEEE_UNDERFLOW_FLAG IEEE_DENORMAL
Note: The following floating-point exceptions are signalling: IEEE_UNDERFLOW_FLAG IEEE_DENORMAL
Note: The following floating-point exceptions are signalling: IEEE_UNDERFLOW_FLAG IEEE_DENORMAL
Note: The following floating-point exceptions are signalling: IEEE_UNDERFLOW_FLAG IEEE_DENORMAL
Note: The following floating-point exceptions are signalling: IEEE_UNDERFLOW_FLAG IEEE_DENORMAL
Note: The following floating-point exceptions are signalling: IEEE_UNDERFLOW_FLAG IEEE_DENORMAL
Note: The following floating-point exceptions are signalling: IEEE_UNDERFLOW_FLAG IEEE_DENORMAL
Note: The following floating-point exceptions are signalling: IEEE_UNDERFLOW_FLAG IEEE_DENORMAL
Note: The following floating-point exceptions are signalling: IEEE_UNDERFLOW_FLAG IEEE_DENORMAL
mv: cannot stat 'slurm-1202761.out': No such file or directory
