Lmod has detected the following error: The following module(s) are unknown:
"epcc-job-env"

Please check the spelling or version number. Also try "module spider ..."
It is also possible your cache file is out-of-date; it may help to try:
  $ module --ignore-cache load "epcc-job-env"

Also make sure that all modulefiles written in TCL start with the string
#%Module




Warning: You have enabled access to software packages installed
by external parties on ARCHER2 or those that are not fully-supported.
The ARCHER2 CSE service does not test these packages. The service desk
will make reasonable efforts to assist with questions on the use of
these packages but some issues may not be able to be resolved by the
service and they may direct you to seek help from external parties.


         256 PROCESSORS WORKING

         
 *******************************************************************************
 *                                                                             *
 *                               CRYSTAL17                                     *
 *                      public : 1.0.2 - March 1st, 2018 STFC/Archer2 build    *
 *                       HTTP://WWW.CRYSTAL.UNITO.IT                           *
 *                                                                             *
 *                              MAIN AUTHORS                                   *
 *                                                                             *
 *  R. DOVESI(1,11), V.R. SAUNDERS(2), C. ROETTI(1,11), R. ORLANDO(1,11),      *
 *  C.M. ZICOVICH-WILSON(1,3), F. PASCALE(4), B. CIVALLERI(1,11),              *
 *  K. DOLL(5), N.M. HARRISON(2,6), I.J. BUSH(7), Ph. D'ARCO(8),               *
 *  M. LLUNELL(9), M. CAUSA'(10), Y. NOEL(8), L. MASCHIO(1,11), A. ERBA(1,11)  *
 *  M. RE'RAT(14), S. CASASSA(1,11)                                            *
 *                                                                             *
 *        CONTRIBUTIONS TO THE CODE HAVE ALSO BEEN GIVEN BY                    *
 *                                                                             *
 *  M. FERRABONE(1,11), M. DE LA PIERRE(1,11), M. FERRERO(1,11),               *
 *  J. BAIMA(1,11), E. ALBANESE(1,11), M.F. PEINTINGER(12), R. BAST(13),       *
 *  B. KIRTMAN(15), V. LACIVITA(1,11), R. DEMICHELIS(1,16)                     *
 *  G. BRANDEBURG(17), S. SALUSTRO(1,11), G. SANSONE(1,11)                     *
 *  M.T. RUGGIERO(18)                                                          *
 *                                                                             *
 * (1) THEORETICAL CHEMISTRY GROUP - UNIVERSITA' DI TORINO - TORINO (ITALY)    *
 * (2) COMPUTATIONAL SCIENCE & ENGINEERING DEPARTMENT - STFC DARESBURY (UK)    *
 * (3) UNIVERSIDAD AUTONOMA DEL ESTADO DE MORELOS - CUERNAVACA (MEXICO)        *
 * (4) UNIVERSITE' DE LORRAINE - NANCY (FRANCE)                                *
 * (5) UNIVERSITAET STUTTGART- STUTTGART (GERMANY)                             *
 * (6) IMPERIAL COLLEGE - LONDON (UK)                                          *
 * (7) OXFORD E-RESEARCH CENTRE - OXFORD (UK)                                  *
 * (8) UPMC - SORBONNE UNIVERSITES - PARIS (FRANCE)                            *
 * (9) UNIVERSIDAD DE BARCELONA - BARCELONA (SPAIN)                            *
 *(10) UNIVERSITA' DI NAPOLI "FEDERICO II" - NAPOLI (ITALY)                    *
 *(11) NIS - NANOSTRUCTURED INTERFACES AND SURFACES - TORINO (ITALY)           *
 *(12) MPI FUER CHEMISCHE ENERGIEKONVERSION - MUELHEIM AN DER RUHR (GERMANY)   *
 *(13) UNIVERSITY OF TROMSO - TROMSO (NORWAY)                                  *
 *(14) UNIVERSITE' DE PAU ET DES PAYS DE L'ADOUR - PAU (FRANCE)                *
 *(15) UNIVERSITY OF CALIFORNIA SANTA BARBARA - SANTA BARBARA (USA)            *
 *(16) CURTIN UNIVERSITY - PERTH (AUSTRALIA)                                   *
 *(17) UNIVERSITY COLLEGE LONDON - LONDON (UK)                                 *
 *(18) CAMBRIDGE UNIVERSITY - CAMBRIDGE (UK)                                   *
 *                                                                             *
 *******************************************************************************
 EEEEEEEEEE STARTING  DATE 06 03 2022 TIME 00:03:36.5
 F1 vol step7 freq - PBEh-3c                                                     

 GEOMETRY INPUT FROM EXTERNAL FILE (FORTRAN UNIT 34)
 3D - CRYSTAL 

 *******************************************************************************
 LATTICE PARAMETERS  (ANGSTROMS AND DEGREES) - PRIMITIVE CELL
       A          B          C        ALPHA      BETA     GAMMA        VOLUME
    7.25352    9.50307   12.85470    90.00000 117.06031  90.00000    789.082179

 NUMBER OF IRREDUCIBLE ATOMS IN THE CELL:   20

 CARTESIAN COORDINATES (ANGSTROM) - IRREDUCIBLE ATOMS AND SYMMETRY RELATED

 AT.IRR.  AT  AT.N.          X                   Y                   Z
     1     1     8    2.765995267026E+00 -7.384484220960E-01  2.424298358772E+00
     1     2     8    1.600553824187E+00  4.013086477372E+00  3.271251366957E+00
     1     3     8   -2.765995267026E+00  7.384484220960E-01 -2.424298358772E+00
     1     4     8   -1.600553824187E+00 -4.013086477372E+00 -3.271251366957E+00
     5     5     8    7.787612717800E-01  4.810298776997E+00 -2.277651693497E+00
     5     6     8    2.108056047364E+00  5.876387752800E-02 -3.464918269651E+00
     5     7     8   -7.787612717800E-01 -4.810298776997E+00  2.277651693497E+00
     5     8     8   -2.108056047364E+00 -5.876387752800E-02  3.464918269651E+00
     9     9     7    2.963355732052E+00 -4.316170377530E+00 -1.828460948714E+00
     9    10     7   -7.653841290900E-02  4.353645219390E-01 -3.914109014434E+00
     9    11     7   -2.963355732052E+00  4.316170377530E+00  1.828460948714E+00
     9    12     7    7.653841290900E-02 -4.353645219390E-01  3.914109014434E+00
    13    13     6    2.867255480843E+00 -3.434801649528E+00 -7.350195449500E-01
    13    14     6    1.956183830000E-02  1.316733249940E+00 -5.007550418198E+00
    13    15     6   -2.867255480843E+00  3.434801649528E+00  7.350195449500E-01
    13    16     6   -1.956183830000E-02 -1.316733249940E+00  5.007550418198E+00
    17    17     6    1.806382535923E+00 -3.420355887472E+00  1.650532997390E-01
    17    18     6    1.080434783220E+00  1.331179011997E+00 -5.907623262888E+00
    17    19     6   -1.806382535923E+00  3.420355887472E+00 -1.650532997390E-01
    17    20     6   -1.080434783220E+00 -1.331179011997E+00  5.907623262888E+00
    21    21     6    1.792532466984E+00 -2.516255605062E+00  1.216995403807E+00
    21    22     6    2.574016624230E+00  2.235279294407E+00  4.478554321922E+00
    21    23     6   -1.792532466984E+00  2.516255605062E+00 -1.216995403807E+00
    21    24     6   -2.574016624230E+00 -2.235279294407E+00 -4.478554321922E+00
    25    25     6    2.837637807621E+00 -1.615526271453E+00  1.402438004692E+00
    25    26     6    1.528911283592E+00  3.136008628015E+00  4.293111721037E+00
    25    27     6   -2.837637807621E+00  1.615526271453E+00 -1.402438004692E+00
    25    28     6   -1.528911283592E+00 -3.136008628015E+00 -4.293111721037E+00
    29    29     6   -3.341837098762E+00 -1.649246210605E+00  5.635986135030E-01
    29    30     6    4.550197796190E-01  3.102288688864E+00  5.178971349645E+00
    29    31     6    3.341837098762E+00  1.649246210605E+00 -5.635986135030E-01
    29    32     6   -4.550197796190E-01 -3.102288688864E+00 -5.178971349645E+00
    33    33     6   -3.333782981867E+00 -2.545716853494E+00 -4.902026101010E-01
    33    34     6   -1.032766109347E+00  2.205818045975E+00 -5.205347115628E+00
    33    35     6    3.333782981867E+00  2.545716853494E+00  4.902026101010E-01
    33    36     6    1.032766109347E+00 -2.205818045975E+00  5.205347115628E+00
    37    37     6    1.968834472400E+00  4.640696420070E+00 -2.544312652500E+00
    37    38     6    9.179828467430E-01 -1.108384793990E-01 -3.198257310648E+00
    37    39     6   -1.968834472400E+00 -4.640696420070E+00  2.544312652500E+00
    37    40     6   -9.179828467430E-01  1.108384793990E-01  3.198257310648E+00
    41    41     6    2.407318814233E+00  3.781906725729E+00 -3.698138845590E+00
    41    42     6    4.794985049100E-01 -9.696281737400E-01 -2.044431117558E+00
    41    43     6   -2.407318814233E+00 -3.781906725729E+00  3.698138845590E+00
    41    44     6   -4.794985049100E-01  9.696281737400E-01  2.044431117558E+00
    45    45     1    9.842334537410E-01 -4.110379341835E+00  6.820418120800E-02
    45    46     1    1.902583865402E+00  6.411555576340E-01 -5.810774144357E+00
    45    47     1   -9.842334537410E-01  4.110379341835E+00 -6.820418120800E-02
    45    48     1   -1.902583865402E+00 -6.411555576340E-01  5.810774144357E+00
    49    49     1    9.557339172250E-01 -2.524558952587E+00  1.904454505511E+00
    49    50     1    3.410815173988E+00  2.226975946881E+00  3.791095220218E+00
    49    51     1   -9.557339172250E-01  2.524558952587E+00 -1.904454505511E+00
    49    52     1   -3.410815173988E+00 -2.226975946881E+00 -3.791095220218E+00
    53    53     1   -2.514181466176E+00 -9.615785503740E-01  6.783942179330E-01
    53    54     1   -3.726358529680E-01  3.789956349095E+00  5.064175745215E+00
    53    55     1    2.514181466176E+00  9.615785503740E-01 -6.783942179330E-01
    53    56     1    3.726358529680E-01 -3.789956349095E+00 -5.064175745215E+00
    57    57     1   -2.488910818904E+00 -2.553089435497E+00 -1.167791032313E+00
    57    58     1   -1.877638272310E+00  2.198445463972E+00 -4.527758693416E+00
    57    59     1    2.488910818904E+00  2.553089435497E+00  1.167791032313E+00
    57    60     1    1.877638272310E+00 -2.198445463972E+00  4.527758693416E+00
    61    61     1   -3.607667583013E+00 -3.686181271030E-01  2.705390339299E+00
    61    62     1    7.208502638700E-01  4.382916772366E+00  3.037179623849E+00
    61    63     1    3.607667583013E+00  3.686181271030E-01 -2.705390339299E+00
    61    64     1   -7.208502638700E-01 -4.382916772366E+00 -3.037179623849E+00
    65    65     1   -3.350119407607E+00 -4.470330512081E+00 -2.124712309913E+00
    65    66     1   -1.016429683606E+00  2.812043873880E-01 -3.570837415816E+00
    65    67     1    3.350119407607E+00  4.470330512081E+00  2.124712309913E+00
    65    68     1    1.016429683606E+00 -2.812043873880E-01  3.570837415816E+00
    69    69     1    1.762081969614E+00  3.947051732375E+00 -4.559652602721E+00
    69    70     1    1.124735349530E+00 -8.044831670940E-01 -1.182917360427E+00
    69    71     1   -1.762081969614E+00 -3.947051732375E+00  4.559652602721E+00
    69    72     1   -1.124735349530E+00  8.044831670940E-01  1.182917360427E+00
    73    73     1    3.442448742977E+00  3.950680015833E+00 -3.989593683904E+00
    73    74     1   -5.556314238330E-01 -8.008548836360E-01 -1.752976279244E+00
    73    75     1   -3.442448742977E+00 -3.950680015833E+00  3.989593683904E+00
    73    76     1    5.556314238330E-01  8.008548836360E-01  1.752976279244E+00
    77    77     1    2.300954700768E+00  2.730267756207E+00 -3.432691010961E+00
    77    78     1    5.858626183760E-01 -2.021267143262E+00 -2.309878952187E+00
    77    79     1   -2.300954700768E+00 -2.730267756207E+00  3.432691010961E+00
    77    80     1   -5.858626183760E-01  2.021267143262E+00  2.309878952187E+00

 SPACE  GROUP  N.                     :   14
 NUMBER OF SYMMETRY OPERATORS         :    4
 *******************************************************************************
 LATTICE PARAMETERS (ANGSTROMS AND DEGREES) - BOHR = 0.5291772083 ANGSTROM
 PRIMITIVE CELL - CENTRING CODE 1/0 VOLUME=   789.082179 - DENSITY  1.272 g/cm^3
         A              B              C           ALPHA      BETA       GAMMA 
     7.25351881     9.50306980    12.85469938    90.000000 117.060312  90.000000
 *******************************************************************************
 ATOMS IN THE ASYMMETRIC UNIT   20 - ATOMS IN THE UNIT CELL:   80
     ATOM                 X/A                 Y/B                 Z/C    
 *******************************************************************************
      1 T   8 O    -4.488449627120E-01 -7.770630309149E-02  2.133377403500E-01
      2 F   8 O     4.488449627117E-01  4.222936969083E-01  2.866622596499E-01
      3 F   8 O     4.488449627120E-01  7.770630309149E-02 -2.133377403500E-01
      4 F   8 O    -4.488449627117E-01 -4.222936969083E-01 -2.866622596499E-01
      5 T   8 O    -5.065543893198E-02 -4.938163268533E-01 -1.985203087549E-01
      6 F   8 O     5.065543893198E-02  6.183673146814E-03 -3.014796912449E-01
      7 F   8 O     5.065543893198E-02  4.938163268533E-01  1.985203087549E-01
      8 F   8 O    -5.065543893198E-02 -6.183673146814E-03  3.014796912449E-01
      9 T   7 N     2.827463736764E-01 -4.541869594614E-01 -1.580447568547E-01
     10 F   7 N    -2.827463736766E-01  4.581304053850E-02 -3.419552431451E-01
     11 F   7 N    -2.827463736764E-01  4.541869594614E-01  1.580447568547E-01
     12 F   7 N     2.827463736766E-01 -4.581304053850E-02  3.419552431451E-01
     13 T   6 C     3.454842650094E-01 -3.614412734200E-01 -6.258302444698E-02
     14 F   6 C    -3.454842650095E-01  1.385587265798E-01 -4.374169755528E-01
     15 F   6 C    -3.454842650094E-01  3.614412734200E-01  6.258302444698E-02
     16 F   6 C     3.454842650095E-01 -1.385587265798E-01  4.374169755528E-01
     17 T   6 C     2.613314534683E-01 -3.599211580929E-01  1.544092347714E-02
     18 F   6 C    -2.613314534685E-01  1.400788419070E-01  4.845590765229E-01
     19 F   6 C    -2.613314534683E-01  3.599211580929E-01 -1.544092347714E-02
     20 F   6 C     2.613314534685E-01 -1.400788419070E-01 -4.845590765229E-01
     21 T   6 C     3.325604355955E-01 -2.647834498009E-01  1.073241146695E-01
     22 F   6 C    -3.325604355958E-01  2.352165501990E-01  3.926758853304E-01
     23 F   6 C    -3.325604355955E-01  2.647834498009E-01 -1.073241146695E-01
     24 F   6 C     3.325604355958E-01 -2.352165501990E-01 -3.926758853304E-01
     25 T   6 C     4.900114552862E-01 -1.700004636011E-01  1.241150276623E-01
     26 F   6 C    -4.900114552865E-01  3.299995363987E-01  3.758849723376E-01
     27 F   6 C    -4.900114552862E-01  1.700004636011E-01 -1.241150276623E-01
     28 F   6 C     4.900114552865E-01 -3.299995363987E-01 -3.758849723376E-01
     29 T   6 C    -4.230467475442E-01 -1.735487842875E-01  4.734002880966E-02
     30 F   6 C     4.230467475443E-01  3.264512157124E-01  4.526599711902E-01
     31 F   6 C     4.230467475442E-01  1.735487842875E-01 -4.734002880966E-02
     32 F   6 C    -4.230467475443E-01 -3.264512157124E-01 -4.526599711902E-01
     33 T   6 C    -4.952066829893E-01 -2.678836320636E-01 -4.470884544741E-02
     34 F   6 C     4.952066829895E-01  2.321163679363E-01 -4.552911545524E-01
     35 F   6 C     4.952066829893E-01  2.678836320636E-01  4.470884544741E-02
     36 F   6 C    -4.952066829895E-01 -2.321163679363E-01  4.552911545524E-01
     37 T   6 C     9.541109382358E-02  4.883365605278E-01 -2.211402226280E-01
     38 F   6 C    -9.541109382372E-02 -1.166343947209E-02 -2.788597773718E-01
     39 F   6 C    -9.541109382358E-02 -4.883365605278E-01  2.211402226280E-01
     40 F   6 C     9.541109382372E-02  1.166343947209E-02  2.788597773718E-01
     41 T   6 C     7.583227028723E-02  3.979668471077E-01 -3.216829066032E-01
     42 F   6 C    -7.583227028737E-02 -1.020331528921E-01 -1.783170933966E-01
     43 F   6 C    -7.583227028723E-02 -3.979668471077E-01  3.216829066032E-01
     44 F   6 C     7.583227028737E-02  1.020331528921E-01  1.783170933966E-01
     45 T   1 H     1.408794168044E-01 -4.325317427736E-01  6.515233189480E-03
     46 F   1 H    -1.408794168046E-01  6.746825722626E-02  4.934847668106E-01
     47 F   1 H    -1.408794168044E-01  4.325317427736E-01 -6.515233189480E-03
     48 F   1 H     1.408794168046E-01 -6.746825722626E-02 -4.934847668106E-01
     49 T   1 H     2.646174225578E-01 -2.656572040404E-01  1.669023531142E-01
     50 F   1 H    -2.646174225582E-01  2.343427959594E-01  3.330976468857E-01
     51 F   1 H    -2.646174225578E-01  2.656572040404E-01 -1.669023531142E-01
     52 F   1 H     2.646174225582E-01 -2.343427959594E-01 -3.330976468857E-01
     53 T   1 H    -3.005851840689E-01 -1.011860978314E-01  5.783652924352E-02
     54 F   1 H     3.005851840689E-01  3.988139021685E-01  4.421634707563E-01
     55 F   1 H     3.005851840689E-01  1.011860978314E-01 -5.783652924352E-02
     56 F   1 H    -3.005851840689E-01 -3.988139021685E-01 -4.421634707563E-01
     57 T   1 H    -4.254606078069E-01 -2.686594426342E-01 -1.034202716490E-01
     58 F   1 H     4.254606078072E-01  2.313405573657E-01 -3.965797283509E-01
     59 F   1 H     4.254606078069E-01  2.686594426342E-01  1.034202716490E-01
     60 F   1 H    -4.254606078072E-01 -2.313405573657E-01  3.965797283509E-01
     61 T   1 H    -3.108906179738E-01 -3.878937384466E-02  2.342829261025E-01
     62 F   1 H     3.108906179740E-01  4.612106261552E-01  2.657170738973E-01
     63 F   1 H     3.108906179738E-01  3.878937384466E-02 -2.342829261025E-01
     64 F   1 H    -3.108906179740E-01 -4.612106261552E-01 -2.657170738973E-01
     65 T   1 H     3.888813323058E-01 -4.704091000762E-01 -1.874985649786E-01
     66 F   1 H    -3.888813323054E-01  2.959089992366E-02 -3.125014350213E-01
     67 F   1 H    -3.888813323058E-01  4.704091000762E-01  1.874985649786E-01
     68 F   1 H     3.888813323054E-01 -2.959089992366E-02  3.125014350213E-01
     69 T   1 H    -7.331908848935E-02  4.153449165253E-01 -3.973047009397E-01
     70 F   1 H     7.331908848935E-02 -8.465508347458E-02 -1.026952990601E-01
     71 F   1 H     7.331908848935E-02 -4.153449165253E-01  3.973047009397E-01
     72 F   1 H    -7.331908848935E-02  8.465508347458E-02  1.026952990601E-01
     73 T   1 H     1.987434025164E-01  4.157267177259E-01 -3.465563978735E-01
     74 F   1 H    -1.987434025164E-01 -8.427328227404E-02 -1.534436021263E-01
     75 F   1 H    -1.987434025164E-01 -4.157267177259E-01  3.465563978735E-01
     76 F   1 H     1.987434025164E-01  8.427328227404E-02  1.534436021263E-01
     77 T   1 H     7.957760833141E-02  2.873037675164E-01 -2.985552875217E-01
     78 F   1 H    -7.957760833141E-02 -2.126962324835E-01 -2.014447124781E-01
     79 F   1 H    -7.957760833141E-02 -2.873037675164E-01  2.985552875217E-01
     80 F   1 H     7.957760833141E-02  2.126962324835E-01  2.014447124781E-01

 T = ATOM BELONGING TO THE ASYMMETRIC UNIT
 *******************************************************************************
 * GEOMETRY EDITING - INPUT COORDINATES ARE GIVEN IN ANGSTROM         
 *******************************************************************************

 GEOMETRY NOW FULLY CONSISTENT WITH THE GROUP

 FRQFRQFRQFRQFRQFRQFRQFRQFRQFRQFRQFRQFRQFRQFRQFRQFRQFRQFRQFRQFRQFRQFRQFRQFRQFRQ

                       FREQUENCY CALCULATION

 INFORMATION **** INPFREQ ****  PRINTING OF EIGENVECTORS
 INFORMATION **** INPFREQ **** NEW DEFAULT - IMPOSING ECKART CONDITIONS TO THE HESSIAN

 GCALCO - MAX INDICES DIRECT LATTICE VECTOR    20    14    11
 NO.OF VECTORS CREATED 6999 STARS 1868 RMAX   207.48037 BOHR

 GEOMETRY FOR WAVE FUNCTION - DIMENSIONALITY OF THE SYSTEM    3
 (NON PERIODIC DIRECTION: LATTICE PARAMETER FORMALLY SET TO 500)
 *******************************************************************************
 LATTICE PARAMETERS (ANGSTROMS AND DEGREES) - BOHR = 0.5291772083 ANGSTROM
 PRIMITIVE CELL - CENTRING CODE 1/0 VOLUME=   789.082179 - DENSITY  1.272 g/cm^3
         A              B              C           ALPHA      BETA       GAMMA 
     7.25351881     9.50306980    12.85469938    90.000000 117.060312  90.000000
 *******************************************************************************
 ATOMS IN THE ASYMMETRIC UNIT   20 - ATOMS IN THE UNIT CELL:   80
     ATOM                 X/A                 Y/B                 Z/C    
 *******************************************************************************
      1 T   8 O    -4.488449627120E-01 -7.770630309149E-02  2.133377403500E-01
      2 F   8 O     4.488449627127E-01  4.222936969085E-01  2.866622596500E-01
      3 F   8 O     4.488449627120E-01  7.770630309149E-02 -2.133377403500E-01
      4 F   8 O    -4.488449627114E-01 -4.222936969085E-01 -2.866622596500E-01
      5 T   8 O    -5.065543893198E-02 -4.938163268533E-01 -1.985203087549E-01
      6 F   8 O     5.065543893267E-02  6.183673146708E-03 -3.014796912451E-01
      7 F   8 O     5.065543893198E-02  4.938163268533E-01  1.985203087549E-01
      8 F   8 O    -5.065543893129E-02 -6.183673146708E-03  3.014796912451E-01
      9 T   7 N     2.827463736764E-01 -4.541869594614E-01 -1.580447568547E-01
     10 F   7 N    -2.827463736757E-01  4.581304053860E-02 -3.419552431453E-01
     11 F   7 N    -2.827463736764E-01  4.541869594614E-01  1.580447568547E-01
     12 F   7 N     2.827463736771E-01 -4.581304053860E-02  3.419552431453E-01
     13 T   6 C     3.454842650094E-01 -3.614412734200E-01 -6.258302444698E-02
     14 F   6 C    -3.454842650087E-01  1.385587265800E-01 -4.374169755530E-01
     15 F   6 C    -3.454842650094E-01  3.614412734200E-01  6.258302444698E-02
     16 F   6 C     3.454842650101E-01 -1.385587265800E-01  4.374169755530E-01
     17 T   6 C     2.613314534683E-01 -3.599211580929E-01  1.544092347714E-02
     18 F   6 C    -2.613314534676E-01  1.400788419071E-01  4.845590765229E-01
     19 F   6 C    -2.613314534683E-01  3.599211580929E-01 -1.544092347714E-02
     20 F   6 C     2.613314534690E-01 -1.400788419071E-01 -4.845590765229E-01
     21 T   6 C     3.325604355955E-01 -2.647834498009E-01  1.073241146695E-01
     22 F   6 C    -3.325604355949E-01  2.352165501991E-01  3.926758853305E-01
     23 F   6 C    -3.325604355955E-01  2.647834498009E-01 -1.073241146695E-01
     24 F   6 C     3.325604355962E-01 -2.352165501991E-01 -3.926758853305E-01
     25 T   6 C     4.900114552862E-01 -1.700004636011E-01  1.241150276623E-01
     26 F   6 C    -4.900114552855E-01  3.299995363989E-01  3.758849723377E-01
     27 F   6 C    -4.900114552862E-01  1.700004636011E-01 -1.241150276623E-01
     28 F   6 C     4.900114552868E-01 -3.299995363989E-01 -3.758849723377E-01
     29 T   6 C    -4.230467475442E-01 -1.735487842875E-01  4.734002880966E-02
     30 F   6 C     4.230467475449E-01  3.264512157125E-01  4.526599711903E-01
     31 F   6 C     4.230467475442E-01  1.735487842875E-01 -4.734002880966E-02
     32 F   6 C    -4.230467475435E-01 -3.264512157125E-01 -4.526599711903E-01
     33 T   6 C    -4.952066829893E-01 -2.678836320636E-01 -4.470884544741E-02
     34 F   6 C     4.952066829900E-01  2.321163679364E-01 -4.552911545526E-01
     35 F   6 C     4.952066829893E-01  2.678836320636E-01  4.470884544741E-02
     36 F   6 C    -4.952066829886E-01 -2.321163679364E-01  4.552911545526E-01
     37 T   6 C     9.541109382358E-02  4.883365605278E-01 -2.211402226280E-01
     38 F   6 C    -9.541109382289E-02 -1.166343947220E-02 -2.788597773720E-01
     39 F   6 C    -9.541109382358E-02 -4.883365605278E-01  2.211402226280E-01
     40 F   6 C     9.541109382428E-02  1.166343947220E-02  2.788597773720E-01
     41 T   6 C     7.583227028723E-02  3.979668471077E-01 -3.216829066032E-01
     42 F   6 C    -7.583227028654E-02 -1.020331528923E-01 -1.783170933968E-01
     43 F   6 C    -7.583227028723E-02 -3.979668471077E-01  3.216829066032E-01
     44 F   6 C     7.583227028792E-02  1.020331528923E-01  1.783170933968E-01
     45 T   1 H     1.408794168044E-01 -4.325317427736E-01  6.515233189480E-03
     46 F   1 H    -1.408794168037E-01  6.746825722637E-02  4.934847668105E-01
     47 F   1 H    -1.408794168044E-01  4.325317427736E-01 -6.515233189480E-03
     48 F   1 H     1.408794168051E-01 -6.746825722637E-02 -4.934847668105E-01
     49 T   1 H     2.646174225578E-01 -2.656572040404E-01  1.669023531142E-01
     50 F   1 H    -2.646174225571E-01  2.343427959596E-01  3.330976468858E-01
     51 F   1 H    -2.646174225578E-01  2.656572040404E-01 -1.669023531142E-01
     52 F   1 H     2.646174225585E-01 -2.343427959596E-01 -3.330976468858E-01
     53 T   1 H    -3.005851840689E-01 -1.011860978314E-01  5.783652924352E-02
     54 F   1 H     3.005851840696E-01  3.988139021686E-01  4.421634707565E-01
     55 F   1 H     3.005851840689E-01  1.011860978314E-01 -5.783652924352E-02
     56 F   1 H    -3.005851840682E-01 -3.988139021686E-01 -4.421634707565E-01
     57 T   1 H    -4.254606078069E-01 -2.686594426342E-01 -1.034202716490E-01
     58 F   1 H     4.254606078076E-01  2.313405573658E-01 -3.965797283510E-01
     59 F   1 H     4.254606078069E-01  2.686594426342E-01  1.034202716490E-01
     60 F   1 H    -4.254606078062E-01 -2.313405573658E-01  3.965797283510E-01
     61 T   1 H    -3.108906179738E-01 -3.878937384466E-02  2.342829261025E-01
     62 F   1 H     3.108906179745E-01  4.612106261553E-01  2.657170738975E-01
     63 F   1 H     3.108906179738E-01  3.878937384466E-02 -2.342829261025E-01
     64 F   1 H    -3.108906179732E-01 -4.612106261553E-01 -2.657170738975E-01
     65 T   1 H     3.888813323058E-01 -4.704091000762E-01 -1.874985649786E-01
     66 F   1 H    -3.888813323051E-01  2.959089992377E-02 -3.125014350214E-01
     67 F   1 H    -3.888813323058E-01  4.704091000762E-01  1.874985649786E-01
     68 F   1 H     3.888813323065E-01 -2.959089992377E-02  3.125014350214E-01
     69 T   1 H    -7.331908848935E-02  4.153449165253E-01 -3.973047009397E-01
     70 F   1 H     7.331908849004E-02 -8.465508347468E-02 -1.026952990603E-01
     71 F   1 H     7.331908848935E-02 -4.153449165253E-01  3.973047009397E-01
     72 F   1 H    -7.331908848866E-02  8.465508347468E-02  1.026952990603E-01
     73 T   1 H     1.987434025164E-01  4.157267177259E-01 -3.465563978735E-01
     74 F   1 H    -1.987434025157E-01 -8.427328227415E-02 -1.534436021265E-01
     75 F   1 H    -1.987434025164E-01 -4.157267177259E-01  3.465563978735E-01
     76 F   1 H     1.987434025171E-01  8.427328227415E-02  1.534436021265E-01
     77 T   1 H     7.957760833141E-02  2.873037675164E-01 -2.985552875217E-01
     78 F   1 H    -7.957760833072E-02 -2.126962324836E-01 -2.014447124783E-01
     79 F   1 H    -7.957760833141E-02 -2.873037675164E-01  2.985552875217E-01
     80 F   1 H     7.957760833210E-02  2.126962324836E-01  2.014447124783E-01

 T = ATOM BELONGING TO THE ASYMMETRIC UNIT

 ****    4 SYMMOPS - TRANSLATORS IN FRACTIONAL UNITS
 **** MATRICES AND TRANSLATORS IN THE CRYSTALLOGRAPHIC REFERENCE FRAME
   V INV                    ROTATION MATRICES                   TRANSLATORS
   1   1  1.00  0.00  0.00  0.00  1.00  0.00  0.00  0.00  1.00  0.00  0.00  0.00
   2   2 -1.00  0.00 -0.00  0.00  1.00  0.00 -0.00  0.00 -1.00  0.00  0.50  0.50
   3   3 -1.00  0.00 -0.00  0.00 -1.00 -0.00 -0.00 -0.00 -1.00  0.00  0.00  0.00
   4   4  1.00 -0.00  0.00 -0.00 -1.00 -0.00  0.00 -0.00  1.00  0.00  0.50  0.50

 DIRECT LATTICE VECTORS CARTESIAN COMPONENTS (ANGSTROM)
          X                    Y                    Z
   0.725336641036E+01   0.446490082453E-15  -0.470202374194E-01
  -0.367518624337E-17   0.950306979894E+01  -0.374225659855E-17
  -0.577363463829E+01   0.792462543405E-15   0.114851399263E+02


 CARTESIAN COORDINATES - PRIMITIVE CELL
 *******************************************************************************
 *      ATOM          X(ANGSTROM)         Y(ANGSTROM)         Z(ANGSTROM)
 *******************************************************************************
    1     8 O     2.765995267026E+00 -7.384484220960E-01  2.424298358772E+00
    2     8 O     1.600553824194E+00  4.013086477374E+00  3.271251366959E+00
    3     8 O    -2.765995267026E+00  7.384484220960E-01 -2.424298358772E+00
    4     8 O    -1.600553824184E+00 -4.013086477374E+00 -3.271251366959E+00
    5     8 O     7.787612717800E-01  4.810298776997E+00 -2.277651693497E+00
    6     8 O     2.108056047370E+00  5.876387752700E-02 -3.464918269653E+00
    7     8 O    -7.787612717800E-01 -4.810298776997E+00  2.277651693497E+00
    8     8 O    -2.108056047360E+00 -5.876387752700E-02  3.464918269653E+00
    9     7 N     2.963355732052E+00 -4.316170377530E+00 -1.828460948714E+00
   10     7 N    -7.653841290200E-02  4.353645219400E-01 -3.914109014436E+00
   11     7 N    -2.963355732052E+00  4.316170377530E+00  1.828460948714E+00
   12     7 N     7.653841291200E-02 -4.353645219400E-01  3.914109014436E+00
   13     6 C     2.867255480843E+00 -3.434801649528E+00 -7.350195449500E-01
   14     6 C     1.956183830700E-02  1.316733249942E+00 -5.007550418200E+00
   15     6 C    -2.867255480843E+00  3.434801649528E+00  7.350195449500E-01
   16     6 C    -1.956183829700E-02 -1.316733249942E+00  5.007550418200E+00
   17     6 C     1.806382535923E+00 -3.420355887472E+00  1.650532997390E-01
   18     6 C     1.080434783227E+00  1.331179011998E+00 -5.907623262889E+00
   19     6 C    -1.806382535923E+00  3.420355887472E+00 -1.650532997390E-01
   20     6 C    -1.080434783217E+00 -1.331179011998E+00  5.907623262889E+00
   21     6 C     1.792532466984E+00 -2.516255605062E+00  1.216995403807E+00
   22     6 C     2.574016624236E+00  2.235279294408E+00  4.478554321924E+00
   23     6 C    -1.792532466984E+00  2.516255605062E+00 -1.216995403807E+00
   24     6 C    -2.574016624226E+00 -2.235279294408E+00 -4.478554321924E+00
   25     6 C     2.837637807621E+00 -1.615526271453E+00  1.402438004692E+00
   26     6 C     1.528911283599E+00  3.136008628017E+00  4.293111721039E+00
   27     6 C    -2.837637807621E+00  1.615526271453E+00 -1.402438004692E+00
   28     6 C    -1.528911283589E+00 -3.136008628017E+00 -4.293111721039E+00
   29     6 C    -3.341837098762E+00 -1.649246210605E+00  5.635986135030E-01
   30     6 C     4.550197796220E-01  3.102288688865E+00  5.178971349647E+00
   31     6 C     3.341837098762E+00  1.649246210605E+00 -5.635986135030E-01
   32     6 C    -4.550197796120E-01 -3.102288688865E+00 -5.178971349647E+00
   33     6 C    -3.333782981867E+00 -2.545716853494E+00 -4.902026101010E-01
   34     6 C    -1.032766109343E+00  2.205818045976E+00 -5.205347115630E+00
   35     6 C     3.333782981867E+00  2.545716853494E+00  4.902026101010E-01
   36     6 C     1.032766109353E+00 -2.205818045976E+00  5.205347115630E+00
   37     6 C     1.968834472400E+00  4.640696420070E+00 -2.544312652500E+00
   38     6 C     9.179828467500E-01 -1.108384794000E-01 -3.198257310650E+00
   39     6 C    -1.968834472400E+00 -4.640696420070E+00  2.544312652500E+00
   40     6 C    -9.179828467400E-01  1.108384794000E-01  3.198257310650E+00
   41     6 C     2.407318814233E+00  3.781906725729E+00 -3.698138845590E+00
   42     6 C     4.794985049170E-01 -9.696281737410E-01 -2.044431117560E+00
   43     6 C    -2.407318814233E+00 -3.781906725729E+00  3.698138845590E+00
   44     6 C    -4.794985049070E-01  9.696281737410E-01  2.044431117560E+00
   45     1 H     9.842334537410E-01 -4.110379341835E+00  6.820418120800E-02
   46     1 H     1.902583865409E+00  6.411555576350E-01 -5.810774144358E+00
   47     1 H    -9.842334537410E-01  4.110379341835E+00 -6.820418120800E-02
   48     1 H    -1.902583865399E+00 -6.411555576350E-01  5.810774144358E+00
   49     1 H     9.557339172250E-01 -2.524558952587E+00  1.904454505511E+00
   50     1 H     3.410815173995E+00  2.226975946883E+00  3.791095220220E+00
   51     1 H    -9.557339172250E-01  2.524558952587E+00 -1.904454505511E+00
   52     1 H    -3.410815173985E+00 -2.226975946883E+00 -3.791095220220E+00
   53     1 H    -2.514181466176E+00 -9.615785503740E-01  6.783942179330E-01
   54     1 H    -3.726358529640E-01  3.789956349096E+00  5.064175745217E+00
   55     1 H     2.514181466176E+00  9.615785503740E-01 -6.783942179330E-01
   56     1 H     3.726358529740E-01 -3.789956349096E+00 -5.064175745217E+00
   57     1 H    -2.488910818904E+00 -2.553089435497E+00 -1.167791032313E+00
   58     1 H    -1.877638272306E+00  2.198445463973E+00 -4.527758693418E+00
   59     1 H     2.488910818904E+00  2.553089435497E+00  1.167791032313E+00
   60     1 H     1.877638272316E+00 -2.198445463973E+00  4.527758693418E+00
   61     1 H    -3.607667583013E+00 -3.686181271030E-01  2.705390339299E+00
   62     1 H     7.208502638730E-01  4.382916772367E+00  3.037179623851E+00
   63     1 H     3.607667583013E+00  3.686181271030E-01 -2.705390339299E+00
   64     1 H    -7.208502638630E-01 -4.382916772367E+00 -3.037179623851E+00
   65     1 H    -3.350119407607E+00 -4.470330512081E+00 -2.124712309913E+00
   66     1 H    -1.016429683603E+00  2.812043873890E-01 -3.570837415818E+00
   67     1 H     3.350119407607E+00  4.470330512081E+00  2.124712309913E+00
   68     1 H     1.016429683613E+00 -2.812043873890E-01  3.570837415818E+00
   69     1 H     1.762081969614E+00  3.947051732375E+00 -4.559652602721E+00
   70     1 H     1.124735349536E+00 -8.044831670950E-01 -1.182917360429E+00
   71     1 H    -1.762081969614E+00 -3.947051732375E+00  4.559652602721E+00
   72     1 H    -1.124735349526E+00  8.044831670950E-01  1.182917360429E+00
   73     1 H     3.442448742977E+00  3.950680015833E+00 -3.989593683904E+00
   74     1 H    -5.556314238270E-01 -8.008548836370E-01 -1.752976279246E+00
   75     1 H    -3.442448742977E+00 -3.950680015833E+00  3.989593683904E+00
   76     1 H     5.556314238370E-01  8.008548836370E-01  1.752976279246E+00
   77     1 H     2.300954700768E+00  2.730267756207E+00 -3.432691010961E+00
   78     1 H     5.858626183820E-01 -2.021267143263E+00 -2.309878952189E+00
   79     1 H    -2.300954700768E+00 -2.730267756207E+00  3.432691010961E+00
   80     1 H    -5.858626183720E-01  2.021267143263E+00  2.309878952189E+00

 *******************************************************************************
 STARTING BASIS SET HANDLING 
 *******************************************************************************

 Loading internal basis set: DEF2-MSVP           

 Please cite in your publication:
 Fully Optimized Contracted Gaussian Basis Sets for Atoms Li to Kr. A. Schäfer, H. Horn and R. Ahlrichs; J. Chem. Phys. 97, 2571 (1992).                                                                                                                         
 S. Grimme, J. G. Brandenburg, C. Bannwarth, and A. Hansen, J. Chem. Phys., 143, 054107 (2015).                                                                                                                                                                  

 *******************************************************************************
 LOCAL ATOMIC FUNCTIONS BASIS SET
 *******************************************************************************
   ATOM   X(AU)   Y(AU)   Z(AU)  N. TYPE  EXPONENT  S COEF   P COEF   D/F/G COEF
 *******************************************************************************
   1 O    5.227  -1.395   4.581
                                  1 S  
                                         6.773E+03 1.727E-03 0.000E+00 0.000E+00
                                         1.017E+03 1.325E-02 0.000E+00 0.000E+00
                                         2.313E+02 6.603E-02 0.000E+00 0.000E+00
                                         6.501E+01 2.353E-01 0.000E+00 0.000E+00
                                         2.050E+01 5.498E-01 0.000E+00 0.000E+00
                                  2 S  
                                         6.716E+00 1.000E+00 0.000E+00 0.000E+00
                                  3 S  
                                         1.147E+00 1.000E+00 0.000E+00 0.000E+00
                                  4 S  
                                         3.342E-01 1.000E+00 0.000E+00 0.000E+00
                           5-     7 P  
                                         1.769E+01 0.000E+00 4.359E-02 0.000E+00
                                         3.854E+00 0.000E+00 2.318E-01 0.000E+00
                                         1.047E+00 0.000E+00 5.146E-01 0.000E+00
                           8-    10 P  
                                         2.759E-01 0.000E+00 1.000E+00 0.000E+00
                          11-    15 D  
                                         8.000E-01 0.000E+00 0.000E+00 1.000E+00
   2 O    3.025   7.584   6.182
   3 O   -5.227   1.395  -4.581
   4 O   -3.025  -7.584  -6.182
   5 O    1.472   9.090  -4.304
   6 O    3.984   0.111  -6.548
   7 O   -1.472  -9.090   4.304
   8 O   -3.984  -0.111   6.548
   9 N    5.600  -8.156  -3.455
                                121 S  
                                         5.072E+03 1.707E-03 0.000E+00 0.000E+00
                                         7.614E+02 1.309E-02 0.000E+00 0.000E+00
                                         1.732E+02 6.510E-02 0.000E+00 0.000E+00
                                         4.867E+01 2.305E-01 0.000E+00 0.000E+00
                                         1.533E+01 5.330E-01 0.000E+00 0.000E+00
                                122 S  
                                         5.019E+00 1.000E+00 0.000E+00 0.000E+00
                                123 S  
                                         8.355E-01 1.000E+00 0.000E+00 0.000E+00
                                124 S  
                                         2.463E-01 1.000E+00 0.000E+00 0.000E+00
                         125-   127 P  
                                         1.355E+01 0.000E+00 4.063E-02 0.000E+00
                                         2.918E+00 0.000E+00 2.209E-01 0.000E+00
                                         7.983E-01 0.000E+00 5.186E-01 0.000E+00
                         128-   130 P  
                                         2.190E-01 0.000E+00 1.000E+00 0.000E+00
                         131-   135 D  
                                         8.000E-01 0.000E+00 0.000E+00 1.000E+00
  10 N   -0.145   0.823  -7.397
  11 N   -5.600   8.156   3.455
  12 N    0.145  -0.823   7.397
  13 C    5.418  -6.491  -1.389
                                181 S  
                                         3.624E+03 1.634E-03 0.000E+00 0.000E+00
                                         5.440E+02 1.252E-02 0.000E+00 0.000E+00
                                         1.237E+02 6.211E-02 0.000E+00 0.000E+00
                                         3.476E+01 2.182E-01 0.000E+00 0.000E+00
                                         1.093E+01 4.980E-01 0.000E+00 0.000E+00
                                182 S  
                                         3.574E+00 1.000E+00 0.000E+00 0.000E+00
                                183 S  
                                         5.748E-01 1.000E+00 0.000E+00 0.000E+00
                                184 S  
                                         1.730E-01 1.000E+00 0.000E+00 0.000E+00
                         185-   187 P  
                                         9.443E+00 0.000E+00 3.790E-02 0.000E+00
                                         2.002E+00 0.000E+00 2.082E-01 0.000E+00
                                         5.463E-01 0.000E+00 5.047E-01 0.000E+00
                         188-   190 P  
                                         1.520E-01 0.000E+00 1.000E+00 0.000E+00
                         191-   195 D  
                                         8.000E-01 0.000E+00 0.000E+00 1.000E+00
  14 C    0.037   2.488  -9.463
  15 C   -5.418   6.491   1.389
  16 C   -0.037  -2.488   9.463
  17 C    3.414  -6.464   0.312
  18 C    2.042   2.516 -11.164
  19 C   -3.414   6.464  -0.312
  20 C   -2.042  -2.516  11.164
  21 C    3.387  -4.755   2.300
  22 C    4.864   4.224   8.463
  23 C   -3.387   4.755  -2.300
  24 C   -4.864  -4.224  -8.463
  25 C    5.362  -3.053   2.650
  26 C    2.889   5.926   8.113
  27 C   -5.362   3.053  -2.650
  28 C   -2.889  -5.926  -8.113
  29 C   -6.315  -3.117   1.065
  30 C    0.860   5.862   9.787
  31 C    6.315   3.117  -1.065
  32 C   -0.860  -5.862  -9.787
  33 C   -6.300  -4.811  -0.926
  34 C   -1.952   4.168  -9.837
  35 C    6.300   4.811   0.926
  36 C    1.952  -4.168   9.837
  37 C    3.721   8.770  -4.808
  38 C    1.735  -0.209  -6.044
  39 C   -3.721  -8.770   4.808
  40 C   -1.735   0.209   6.044
  41 C    4.549   7.147  -6.988
  42 C    0.906  -1.832  -3.863
  43 C   -4.549  -7.147   6.988
  44 C   -0.906   1.832   3.863
  45 H    1.860  -7.767   0.129
                                661 S  
                                         1.874E+01 1.968E-02 0.000E+00 0.000E+00
                                         2.826E+00 1.380E-01 0.000E+00 0.000E+00
                                         6.401E-01 4.783E-01 0.000E+00 0.000E+00
                                662 S  
                                         1.756E-01 1.000E+00 0.000E+00 0.000E+00
  46 H    3.595   1.212 -10.981
  47 H   -1.860   7.767  -0.129
  48 H   -3.595  -1.212  10.981
  49 H    1.806  -4.771   3.599
  50 H    6.446   4.208   7.164
  51 H   -1.806   4.771  -3.599
  52 H   -6.446  -4.208  -7.164
  53 H   -4.751  -1.817   1.282
  54 H   -0.704   7.162   9.570
  55 H    4.751   1.817  -1.282
  56 H    0.704  -7.162  -9.570
  57 H   -4.703  -4.825  -2.207
  58 H   -3.548   4.154  -8.556
  59 H    4.703   4.825   2.207
  60 H    3.548  -4.154   8.556
  61 H   -6.818  -0.697   5.112
  62 H    1.362   8.283   5.739
  63 H    6.818   0.697  -5.112
  64 H   -1.362  -8.283  -5.739
  65 H   -6.331  -8.448  -4.015
  66 H   -1.921   0.531  -6.748
  67 H    6.331   8.448   4.015
  68 H    1.921  -0.531   6.748
  69 H    3.330   7.459  -8.616
  70 H    2.125  -1.520  -2.235
  71 H   -3.330  -7.459   8.616
  72 H   -2.125   1.520   2.235
  73 H    6.505   7.466  -7.539
  74 H   -1.050  -1.513  -3.313
  75 H   -6.505  -7.466   7.539
  76 H    1.050   1.513   3.313
  77 H    4.348   5.159  -6.487
  78 H    1.107  -3.820  -4.365
  79 H   -4.348  -5.159   6.487
  80 H   -1.107   3.820   4.365

 *******************************************************************************
 FINISHED BASIS SET HANDLING 
 *******************************************************************************

 INFORMATION **** SET_MPP **** PCRYSTAL CALCULATION
 INFORMATION **** READM2 **** NEW DEFAULT: FOCK/KS MATRIX MIXING SET TO 30 %
 INFORMATION **** READM2 **** NEW DEFAULT: FULL DIRECT SCF MODE
 INFORMATION **** READM2 **** NEW DEFAULT: COULOMB BIPOLAR BUFFER SET TO 32 Mb
 INFORMATION **** READM2 **** NEW DEFAULT: EXCHANGE BIPOLAR BUFFER SET TO 32 Mb

 *******************************************************************************
 NEW DEFAULT: DFT INTEGRATION GRID INCREASED TO XLGRID
 NEW DEFAULT: DIIS ACCELERATOR ACTIVE
 USE KEYWORD NODIIS TO TURN IT OFF
 *******************************************************************************

 INFORMATION **** RDDFTP **** PBEh-3c calculation
 INFORMATION **** RDDFTP **** PBEh hybrid functional combined with D3 and gCP

PLEASE CITE:
(1) PBEh-3c Reference
 S. Grimme, J. G. Brandenburg, C. Bannwarth, and A. Hansen, 
 J. Chem. Phys. 143, 054107 (2015)
(2) DFT-D3 Reference
 S. Grimme, J. Antony, S. Ehrlich, and H. Krieg, J. Chem. Phys. 132, 154104 (2010)
(3) gCP Reference
 H. Kruse and S. Grimme J. Chem. Phys, 136, 154101 (2012)
 J. G. Brandenburg, M. Alessio, B. Civalleri, M. F. Peintinger
 T. Bredow, and S. Grimme, J. Phys. Chem. A, 117, 9282 (2013) 

 WARNING **** RDDFTP **** PBEh-3c has to be combined with def2-mSVP basis set
 WARNING **** RDDFTP **** Note: Harmonic frequencies are scaled by 0.95
 WARNING **** RDDFTP **** as recommended in original publication
 INFORMATION **** TOLDEE **** SCF TOL ON TOTAL ENERGY SET TO           9
 INFORMATION **** TOLINTEG **** COULOMB AND EXCHANGE SERIES TOLERANCES MODIFIED
 INFORMATION **** MAXCYCLE **** MAX NUMBER OF SCF CYCLES SET TO          30
 WARNING **** READM2 **** PROBABLE LOSS IN FREQCALC ACCURACY; SCF TOL LT          10
 *******************************************************************************
 N. OF ATOMS PER CELL        80  COULOMB OVERLAP TOL         (T1) 10**   -8
 NUMBER OF SHELLS           380  COULOMB PENETRATION TOL     (T2) 10**   -8
 NUMBER OF AO               732  EXCHANGE OVERLAP TOL        (T3) 10**   -8
 N. OF ELECTRONS PER CELL   320  EXCHANGE PSEUDO OVP (F(G))  (T4) 10**   -8
 CORE ELECTRONS PER CELL     88  EXCHANGE PSEUDO OVP (P(G))  (T5) 10**  -24
 N. OF SYMMETRY OPERATORS     4  POLE ORDER IN MONO ZONE                  4
 *******************************************************************************
 TYPE OF CALCULATION :  RESTRICTED CLOSED SHELL
 KOHN-SHAM HAMILTONIAN

 (EXCHANGE)[CORRELATION] FUNCTIONAL:(PBEh-3c)[PBEh-3c]


 HYBRID EXCHANGE - PERCENTAGE OF FOCK EXCHANGE    42.0000

 CAPPA:IS1  4;IS2  4;IS3  2; K PTS MONK NET  18; SYMMOPS:K SPACE   4;G SPACE   4

 *******************************************************************************
 MAX NUMBER OF SCF CYCLES      30  CONVERGENCE ON DELTAP        10**-19
 WEIGHT OF F(I) IN F(I+1)      50% CONVERGENCE ON ENERGY        10**- 9
 SHRINK. FACT.(MONKH.)    4  4  2  NUMBER OF K POINTS IN THE IBZ     18
 SHRINKING FACTOR(GILAT NET)    4  NUMBER OF K POINTS(GILAT NET)     18
 *******************************************************************************
 *** K POINTS COORDINATES (OBLIQUE COORDINATES IN UNITS OF IS =  4)
   1-R(  0  0  0)   2-C(  1  0  0)   3-R(  2  0  0)   4-C(  0  1  0)
   5-C(  1  1  0)   6-C(  2  1  0)   7-R(  0  2  0)   8-C(  1  2  0)
   9-R(  2  2  0)  10-R(  0  0  1)  11-C(  1  0  1)  12-R(  2  0  1)
  13-C(  0  1  1)  14-C(  1  1  1)  15-C(  2  1  1)  16-R(  0  2  1)
  17-C(  1  2  1)  18-R(  2  2  1)

 DIRECT LATTICE VECTORS COMPON. (A.U.)     RECIP. LATTICE VECTORS COMPON. (A.U.) 
        X            Y            Z              X            Y            Z
   13.7068761    0.0000000   -0.0888554      0.4598953    0.0000000    0.2311916
   -0.0000000   17.9581994   -0.0000000     -0.0000000    0.3498784   -0.0000000
  -10.9105883    0.0000000   21.7037691      0.0018828    0.0000000    0.2904439

 DISK SPACE FOR EIGENVECTORS (FTN 10)    15003072 REALS

 SYMMETRY ADAPTION OF THE BLOCH FUNCTIONS ENABLED
 TTTTTTTTTTTTTTTTTTTTTTTTTTTTTT gordsh1     TELAPSE        3.94 TCPU        1.67

 MATRIX SIZE: P(G) 2166584, F(G)  202846, P(G) IRR  274789, F(G) IRR   51483
 MAX G-VECTOR INDEX FOR 1- AND 2-ELECTRON INTEGRALS  97

 TTTTTTTTTTTTTTTTTTTTTTTTTTTTTT INPUT       TELAPSE        4.01 TCPU        1.75

 NEIGHBORS OF THE NON-EQUIVALENT ATOMS

 N = NUMBER OF NEIGHBORS AT DISTANCE R
    ATOM  N     R/ANG      R/AU   NEIGHBORS (ATOM LABELS AND CELL INDICES)
   1 O    1     0.9826     1.8568   61 H    1 0 0
   1 O    1     1.3486     2.5484   25 C    0 0 0
   1 O    1     2.1412     4.0462   68 H    0 0 0
   1 O    1     2.3592     4.4582   21 C    0 0 0
   1 O    1     2.4044     4.5437   29 C    1 0 0
   1 O    1     2.5957     4.9051   49 H    0 0 0

   5 O    1     1.2313     2.3269   37 C    0 0 0
   5 O    1     1.7093     3.2301   64 H    0 1 0
   5 O    1     2.2619     4.2743    9 N    0 1 0
   5 O    1     2.3932     4.5226   41 C    0 0 0
   5 O    1     2.4258     4.5841   45 H    0 1 0
   5 O    1     2.6305     4.9710   69 H    0 0 0

   9 N    1     1.0124     1.9132   65 H    1 0 0
   9 N    1     1.3416     2.5352   37 C    0-1 0
   9 N    1     1.4077     2.6602   13 C    0 0 0
   9 N    1     2.2619     4.2743    5 O    0-1 0
   9 N    1     2.3909     4.5181   33 C    1 0 0
   9 N    1     2.4039     4.5428   41 C    0-1 0

  13 C    1     1.3913     2.6292   17 C    0 0 0
  13 C    1     1.3918     2.6300   33 C    1 0 0
  13 C    1     1.4077     2.6602    9 N    0 0 0
  13 C    1     2.0518     3.8773   65 H    1 0 0
  13 C    1     2.1464     4.0561   57 H    1 0 0
  13 C    1     2.1558     4.0738   45 H    0 0 0

  17 C    1     1.0777     2.0366   45 H    0 0 0
  17 C    1     1.3871     2.6213   21 C    0 0 0
  17 C    1     1.3913     2.6292   13 C    0 0 0
  17 C    1     2.1334     4.0316   49 H    0 0 0
  17 C    1     2.3924     4.5211   33 C    1 0 0
  17 C    1     2.4191     4.5714   25 C    0 0 0

  21 C    1     1.0830     2.0466   49 H    0 0 0
  21 C    1     1.3871     2.6213   17 C    0 0 0
  21 C    1     1.3921     2.6307   25 C    0 0 0
  21 C    1     2.1247     4.0151   45 H    0 0 0
  21 C    1     2.3592     4.4582    1 O    0 0 0
  21 C    1     2.3943     4.5245   29 C    1 0 0

  25 C    1     1.3486     2.5484    1 O    0 0 0
  25 C    1     1.3921     2.6307   21 C    0 0 0
  25 C    1     1.3925     2.6315   29 C    1 0 0
  25 C    1     1.9455     3.6765   61 H    1 0 0
  25 C    1     2.1494     4.0618   49 H    0 0 0
  25 C    1     2.1536     4.0697   53 H    1 0 0

  29 C    1     1.0822     2.0450   53 H    0 0 0
  29 C    1     1.3836     2.6145   33 C    0 0 0
  29 C    1     1.3925     2.6315   25 C   -1 0 0
  29 C    1     2.1312     4.0274   57 H    0 0 0
  29 C    1     2.3943     4.5245   21 C   -1 0 0
  29 C    1     2.4044     4.5437    1 O   -1 0 0

  33 C    1     1.0830     2.0467   57 H    0 0 0
  33 C    1     1.3836     2.6145   29 C    0 0 0
  33 C    1     1.3918     2.6300   13 C   -1 0 0
  33 C    1     2.1323     4.0295   53 H    0 0 0
  33 C    1     2.3909     4.5181    9 N   -1 0 0
  33 C    1     2.3924     4.5211   17 C   -1 0 0

  37 C    1     1.2313     2.3269    5 O    0 0 0
  37 C    1     1.3416     2.5352    9 N    0 1 0
  37 C    1     1.5037     2.8416   41 C    0 0 0
  37 C    1     2.0086     3.7957   65 H    1 1 0
  37 C    1     2.1329     4.0306   77 H    0 0 0
  37 C    1     2.1414     4.0466   69 H    0 0 0

  41 C    1     1.0885     2.0570   73 H    0 0 0
  41 C    1     1.0889     2.0578   69 H    0 0 0
  41 C    1     1.0898     2.0595   77 H    0 0 0
  41 C    1     1.5037     2.8416   37 C    0 0 0
  41 C    1     2.3932     4.5226    5 O    0 0 0
  41 C    1     2.4039     4.5428    9 N    0 1 0

  45 H    1     1.0777     2.0366   17 C    0 0 0
  45 H    1     2.1247     4.0151   21 C    0 0 0
  45 H    1     2.1558     4.0738   13 C    0 0 0
  45 H    1     2.3533     4.4470   47 H    0-1 0
  45 H    1     2.4258     4.5841    5 O    0-1 0
  45 H    1     2.4264     4.5852   49 H    0 0 0

  49 H    1     1.0830     2.0466   21 C    0 0 0
  49 H    1     2.1334     4.0316   17 C    0 0 0
  49 H    1     2.1494     4.0618   25 C    0 0 0
  49 H    1     2.4264     4.5852   45 H    0 0 0
  49 H    1     2.5957     4.9051    1 O    0 0 0
  49 H    1     2.7952     5.2822   68 H    0 0 0

  53 H    1     1.0822     2.0450   29 C    0 0 0
  53 H    1     2.1323     4.0295   33 C    0 0 0
  53 H    1     2.1536     4.0697   25 C   -1 0 0
  53 H    1     2.3031     4.3521   72 H    0 0 0
  53 H    1     2.3782     4.4942   61 H    0 0 0
  53 H    1     2.4376     4.6064   57 H    0 0 0

  57 H    1     1.0830     2.0467   33 C    0 0 0
  57 H    1     2.1312     4.0274   29 C    0 0 0
  57 H    1     2.1464     4.0561   13 C   -1 0 0
  57 H    1     2.3094     4.3641   65 H    0 0 0
  57 H    1     2.4376     4.6064   53 H    0 0 0
  57 H    1     2.5940     4.9020    9 N   -1 0 0

  61 H    1     0.9826     1.8568    1 O   -1 0 0
  61 H    1     1.7093     3.2301    8 O    0 0 0
  61 H    1     1.9455     3.6765   25 C   -1 0 0
  61 H    1     2.3782     4.4942   53 H    0 0 0
  61 H    1     2.5096     4.7424   29 C    0 0 0
  61 H    1     2.7762     5.2462   40 C    0 0 0

  65 H    1     1.0124     1.9132    9 N   -1 0 0
  65 H    1     2.0086     3.7957   37 C   -1-1 0
  65 H    1     2.0518     3.8773   13 C   -1 0 0
  65 H    1     2.1412     4.0462    4 O    0 0 0
  65 H    1     2.1651     4.0915   73 H   -1-1 0
  65 H    1     2.3094     4.3641   57 H    0 0 0

  69 H    1     1.0889     2.0578   41 C    0 0 0
  69 H    1     1.7438     3.2954   77 H    0 0 0
  69 H    1     1.7744     3.3532   73 H    0 0 0
  69 H    1     2.1414     4.0466   37 C    0 0 0
  69 H    1     2.3031     4.3521   56 H    0 1 0
  69 H    1     2.6305     4.9710    5 O    0 0 0

  73 H    1     1.0885     2.0570   41 C    0 0 0
  73 H    1     1.7614     3.3286   77 H    0 0 0
  73 H    1     1.7744     3.3532   69 H    0 0 0
  73 H    1     2.1651     4.0915   65 H    1 1 0
  73 H    1     2.1763     4.1127   37 C    0 0 0
  73 H    1     2.5354     4.7912    9 N    0 1 0

  77 H    1     1.0898     2.0595   41 C    0 0 0
  77 H    1     1.7438     3.2954   69 H    0 0 0
  77 H    1     1.7614     3.3286   73 H    0 0 0
  77 H    1     2.1329     4.0306   37 C    0 0 0
  77 H    1     2.6787     5.0619    6 O    0 0 0
  77 H    1     2.7953     5.2824   63 H    0 0 0


 SYMMETRY ALLOWED INTERNAL DEGREE(S) OF FREEDOM:  60
 TTTTTTTTTTTTTTTTTTTTTTTTTTTTTT SYMM        TELAPSE        4.04 TCPU        1.78
 TTTTTTTTTTTTTTTTTTTTTTTTTTTTTT INT_SCREEN  TELAPSE        4.24 TCPU        1.98

 *******************************************************************************
 *                                                                             *
 *                                                                             *
 *         FFFFF  RRRR   EEEE   QQQ   U   U  EEEE  N   N   CCC  Y   Y          *
 *         F      R   R  E     Q   Q  U   U  E     NN  N  C      Y Y           *
 *         FFF    RRRR   EEEE  Q   Q  U   U  EEEE  N N N  C       Y            *
 *         F      R   R  E     Q  QQ  U   U  E     N  NN  C       Y            *
 *         F      R   R  EEEE   QQ Q   UUU   EEEE  N   N   CCC    Y            *
 *                                                                             *
 *                                                                             *
 * CALCULATION OF PHONON FREQUENCIES AT THE GAMMA POINT.                       *
 *                                                                             *
 * SYMMETRY IS EXPLOITED TO BUILD THE TOTAL HESSIAN MATRIX.                    *
 * (F. PASCALE PHD THESIS TURIN-PARIS 2002)                                    *
 *                                                                             *
 *******************************************************************************


 * INTENSITIES COMPUTED VIA THE BERRY PHASE APPROACH                           *
 *                                                                             *
 * REFERENCES TO BE QUOTED WHEN USING THIS MODULE:                             *
 *                                                                             *
 * F. Pascale, C.M. Zicovich-Wilson, F. Lopez, B. Civalleri                    *
 * R. Orlando, R. Dovesi                                                       *
 * The calculation of the vibration frequencies of crystalline                 *
 * compounds and its implementation in the CRYSTAL code                        *
 * J. Comput. Chem. 25 (2004) 888-897                                          *
 *                                                                             *
 * C.M. Zicovich-Wilson, F. Pascale, C. Roetti, V.R. Saunders,                 *
 * R. Orlando, R. Dovesi                                                       *
 * The calculation of the vibration frequencies of alpha-quartz:               *
 * the effect of hamiltonian and basis set                                     *
 * J. Comput. Chem. 25 (2004) 1873-1881                                        *
 *******************************************************************************



 ATOMS ISOTOPIC MASS (AMU) FOR FREQUENCY CALCULATION 

    1 O      15.9949    2 O      15.9949    3 O      15.9949    4 O      15.9949
    5 O      15.9949    6 O      15.9949    7 O      15.9949    8 O      15.9949
    9 N      14.0031   10 N      14.0031   11 N      14.0031   12 N      14.0031
   13 C      12.0000   14 C      12.0000   15 C      12.0000   16 C      12.0000
   17 C      12.0000   18 C      12.0000   19 C      12.0000   20 C      12.0000
   21 C      12.0000   22 C      12.0000   23 C      12.0000   24 C      12.0000
   25 C      12.0000   26 C      12.0000   27 C      12.0000   28 C      12.0000
   29 C      12.0000   30 C      12.0000   31 C      12.0000   32 C      12.0000
   33 C      12.0000   34 C      12.0000   35 C      12.0000   36 C      12.0000
   37 C      12.0000   38 C      12.0000   39 C      12.0000   40 C      12.0000
   41 C      12.0000   42 C      12.0000   43 C      12.0000   44 C      12.0000
   45 H       1.0078   46 H       1.0078   47 H       1.0078   48 H       1.0078
   49 H       1.0078   50 H       1.0078   51 H       1.0078   52 H       1.0078
   53 H       1.0078   54 H       1.0078   55 H       1.0078   56 H       1.0078
   57 H       1.0078   58 H       1.0078   59 H       1.0078   60 H       1.0078
   61 H       1.0078   62 H       1.0078   63 H       1.0078   64 H       1.0078
   65 H       1.0078   66 H       1.0078   67 H       1.0078   68 H       1.0078
   69 H       1.0078   70 H       1.0078   71 H       1.0078   72 H       1.0078
   73 H       1.0078   74 H       1.0078   75 H       1.0078   76 H       1.0078
   77 H       1.0078   78 H       1.0078   79 H       1.0078   80 H       1.0078

 INFORMATION CONCERNING THE SCF+GRADIENT CALCULATIONS REQUIRED FOR
 GENERATING FREQUENCIES. IN PRINCIPLE 3N+1 SCF + GRADIENT
 CALCULATIONS  ARE REQUIRED;
 FOR EACH OF THEM THE REMAINING POINT SYMMETRY IS INDICATED.
 POINT SYMMETRY PERMITS TO GENERATE GRADIENTS FOR DISPLACEMENT B 
 STARTING FROM THE GRADIENT GENERATED BY DISPLACEMENT A.

   N   LABEL SYMBOL DISPLACEMENT     SYM. 

   1     EQUILIBRIUM GEOMETRY            4

   2      1   O            DX           1
   3      1   O            DY           1
   4      1   O            DZ           1
   5      5   O            DX           1
   6      5   O            DY           1
   7      5   O            DZ           1
   8      9   N            DX           1
   9      9   N            DY           1
  10      9   N            DZ           1
  11     13   C            DX           1
  12     13   C            DY           1
  13     13   C            DZ           1
  14     17   C            DX           1
  15     17   C            DY           1
  16     17   C            DZ           1
  17     21   C            DX           1
  18     21   C            DY           1
  19     21   C            DZ           1
  20     25   C            DX           1
  21     25   C            DY           1
  22     25   C            DZ           1
  23     29   C            DX           1
  24     29   C            DY           1
  25     29   C            DZ           1
  26     33   C            DX           1
  27     33   C            DY           1
  28     33   C            DZ           1
  29     37   C            DX           1
  30     37   C            DY           1
  31     37   C            DZ           1
  32     41   C            DX           1
  33     41   C            DY           1
  34     41   C            DZ           1
  35     45   H            DX           1
  36     45   H            DY           1
  37     45   H            DZ           1
  38     49   H            DX           1
  39     49   H            DY           1
  40     49   H            DZ           1
  41     53   H            DX           1
  42     53   H            DY           1
  43     53   H            DZ           1
  44     57   H            DX           1
  45     57   H            DY           1
  46     57   H            DZ           1
  47     61   H            DX           1
  48     61   H            DY           1
  49     61   H            DZ           1
  50     65   H            DX           1
  51     65   H            DY           1
  52     65   H            DZ           1
  53     69   H            DX           1
  54     69   H            DY           1
  55     69   H            DZ           1
  56     73   H            DX           1
  57     73   H            DY           1
  58     73   H            DZ           1
  59     77   H            DX           1
  60     77   H            DY           1
  61     77   H            DZ           1
 USE OF RESIDUAL SYMMETRY AFTER DISPLACEMENT

 NUMERICAL GRADIENT COMPUTED WITH A SINGLE DISPLACEMENT (+DX) FOR EACH
 CARTESIAN COORDINATE WITH RESPECT TO THE EQUILIBRIUM CONFIGURATION
 DX=  0.003 ANGSTROM
 NUMBER OF IRREDUCIBLE ATOMS                    20
 NUMBER OF SCF+GRADIENT CALCULATIONS            61

  ATOM  SYMOP  ORDER
    1      1      1
    5      1      1
    9      1      1
   13      1      1
   17      1      1
   21      1      1
   25      1      1
   29      1      1
   33      1      1
   37      1      1
   41      1      1
   45      1      1
   49      1      1
   53      1      1
   57      1      1
   61      1      1
   65      1      1
   69      1      1
   73      1      1
   77      1      1

 ATOM  : IRREDUCIBLE ATOM
 SYMOP : NUMBER OF SYMMETRY OPERATORS THAT DOESN'T MOVE THE IRREDUCIBLE ATOM
 ORDER : MAXIMUM ORDER AMONG THE OPERATORS OF THE IRREDUCIBLE ATOM

 *******************************************************************************


 GCALCO - MAX INDICES DIRECT LATTICE VECTOR    20    14    11
 NO.OF VECTORS CREATED 6999 STARS 1868 RMAX   207.48037 BOHR

 CAPPA:IS1  4;IS2  4;IS3  2; K PTS MONK NET  18; SYMMOPS:K SPACE   4;G SPACE   4

 TTTTTTTTTTTTTTTTTTTTTTTTTTTTTT gordsh1     TELAPSE        4.27 TCPU        2.01

 MATRIX SIZE: P(G) 2166584, F(G)  202846, P(G) IRR  274789, F(G) IRR   51483
 MAX G-VECTOR INDEX FOR 1- AND 2-ELECTRON INTEGRALS  97

 TTTTTTTTTTTTTTTTTTTTTTTTTTTTTT INPUT       TELAPSE        4.29 TCPU        2.03

 SYMMETRY ALLOWED INTERNAL DEGREE(S) OF FREEDOM:  60
 TTTTTTTTTTTTTTTTTTTTTTTTTTTTTT SYMM        TELAPSE        4.31 TCPU        2.05
 TTTTTTTTTTTTTTTTTTTTTTTTTTTTTT INT_SCREEN  TELAPSE        4.33 TCPU        2.06
 INFORMATION **** EXCBUF **** EXCH. BIPO BUFFER: WORDS USED =     3693447

 DFT PARAMETERS

     ATOM       ELECTRONS   NET CHARGE   R(ANGSTROM)
   1   8  O       8.0000      0.0000     0.74000000
   9   7  N       7.0000      0.0000     0.74000000
  13   6  C       6.0000      0.0000     0.77000000
  45   1  H       1.0000      0.0000     1.11000000

 SIZE OF GRID=    1010573
 TTTTTTTTTTTTTTTTTTTTTTTTTTTTTT MAKE_GRID2  TELAPSE        7.36 TCPU        5.10
 BECKE WEIGHT FUNCTION
 RADSAFE =     2.00
 TOLERANCES - DENSITY:10**- 6; POTENTIAL:10**- 9; GRID WGT:10**-14

 RADIAL INTEGRATION  - INTERVALS (POINTS,UPPER LIMIT):            1( 99,  4.0*R)

 ANGULAR INTEGRATION - INTERVALS (ACCURACY LEVEL [N. POINTS] UPPER LIMIT):
  1(  6[ 146]   0.2)  2( 11[ 302]   0.5)  3( 14[ 590]   0.9)  4( 18[1454]   3.5)
  5( 14[ 590]9999.0)
 TTTTTTTTTTTTTTTTTTTTTTTTTTTTTT INT_CALC    TELAPSE        7.40 TCPU        5.13

 *******************************************************************************
 F1 vol step7 freq - PBEh-3c                                                     
 CRYSTAL - SCF - TYPE OF CALCULATION :  RESTRICTED CLOSED SHELL
 *******************************************************************************

 CAPPA:IS1  4;IS2  4;IS3  2; K PTS MONK NET  18; SYMMOPS:K SPACE   4;G SPACE   4

 TTTTTTTTTTTTTTTTTTTTTTTTTTTTTT SDIK        TELAPSE        7.67 TCPU        5.40

 AAAAAAAAAAAAAAAAAAAAAAAAAAAAAAAAAAAAAAAAAAAAAAAAAAAAAAAAAAAAAAAAAAAAAAAAAAAAAAA
         ATOMIC WAVEFUNCTION(S)


 NUCLEAR CHARGE  8.0  SYMMETRY SPECIES            S    P
 N. ELECTRONS    8.0  NUMBER OF PRIMITIVE GTOS    8    4
                      NUMBER OF CONTRACTED GTOS   4    2
                      NUMBER OF CLOSED SHELLS     2    0
                      OPEN SHELL OCCUPATION       0    4

  ZNUC SCFIT  TOTAL HF ENERGY   KINETIC ENERGY   VIRIAL THEOREM ACCURACY
   8.0  12   -7.477373220E+01  7.477365593E+01 -2.000001020E+00  3.8E-06

 NUCLEAR CHARGE  7.0  SYMMETRY SPECIES            S    P
 N. ELECTRONS    7.0  NUMBER OF PRIMITIVE GTOS    8    4
                      NUMBER OF CONTRACTED GTOS   4    2
                      NUMBER OF CLOSED SHELLS     2    0
                      OPEN SHELL OCCUPATION       0    3

  ZNUC SCFIT  TOTAL HF ENERGY   KINETIC ENERGY   VIRIAL THEOREM ACCURACY
   7.0   9   -5.437948210E+01  5.437948297E+01 -1.999999984E+00  1.2E-06

 NUCLEAR CHARGE  6.0  SYMMETRY SPECIES            S    P
 N. ELECTRONS    6.0  NUMBER OF PRIMITIVE GTOS    8    4
                      NUMBER OF CONTRACTED GTOS   4    2
                      NUMBER OF CLOSED SHELLS     2    0
                      OPEN SHELL OCCUPATION       0    2

  ZNUC SCFIT  TOTAL HF ENERGY   KINETIC ENERGY   VIRIAL THEOREM ACCURACY
   6.0   9   -3.767634636E+01  3.767630973E+01 -2.000000972E+00  4.2E-06

 NUCLEAR CHARGE  1.0  SYMMETRY SPECIES            S
 N. ELECTRONS    1.0  NUMBER OF PRIMITIVE GTOS    4
                      NUMBER OF CONTRACTED GTOS   2
                      NUMBER OF CLOSED SHELLS     0
                      OPEN SHELL OCCUPATION       1

  ZNUC SCFIT  TOTAL HF ENERGY   KINETIC ENERGY   VIRIAL THEOREM ACCURACY
   1.0   1   -4.977266687E-01  5.190767460E-01 -1.958869132E+00  2.2E-17

 AAAAAAAAAAAAAAAAAAAAAAAAAAAAAAAAAAAAAAAAAAAAAAAAAAAAAAAAAAAAAAAAAAAAAAAAAAAAAAA

 TTTTTTTTTTTTTTTTTTTTTTTTTTTTTT MOQGAD      TELAPSE        8.21 TCPU        5.78
 TTTTTTTTTTTTTTTTTTTTTTTTTTTTTT SHELLXN     TELAPSE       11.92 TCPU        9.49
 TTTTTTTTTTTTTTTTTTTTTTTTTTTTTT MONMO3      TELAPSE       12.86 TCPU       10.43
 NUMERICALLY INTEGRATED DENSITY    319.9999299312
 TTTTTTTTTTTTTTTTTTTTTTTTTTTTTT NUMDFT      TELAPSE       13.18 TCPU       10.74
 CYC   0 ETOT(AU) -2.070600256112E+03 DETOT -2.07E+03 tst  0.00E+00 PX  1.00E+00
 TTTTTTTTTTTTTTTTTTTTTTTTTTTTTT DIIS        TELAPSE       13.21 TCPU       10.78
 TTTTTTTTTTTTTTTTTTTTTTTTTTTTTT FDIK        TELAPSE       13.81 TCPU       11.37
 INSULATING STATE
 TOP OF VALENCE BANDS -    BAND    160; K    1; EIG -2.8281793E-01 AU
 BOTTOM OF VIRTUAL BANDS - BAND    161; K    7; EIG -1.2443461E-01 AU
 INDIRECT ENERGY BAND GAP:   4.3098 eV
 BOTTOM OF VIRTUAL BANDS - BAND    161; K    1; EIG -1.1937255E-01 AU
 TTTTTTTTTTTTTTTTTTTTTTTTTTTTTT PDIG        TELAPSE       14.16 TCPU       11.72
 TTTTTTTTTTTTTTTTTTTTTTTTTTTTTT MOQGAD      TELAPSE       14.17 TCPU       11.73
 TTTTTTTTTTTTTTTTTTTTTTTTTTTTTT SHELLXN     TELAPSE       18.04 TCPU       15.59
 TTTTTTTTTTTTTTTTTTTTTTTTTTTTTT MONMO3      TELAPSE       19.02 TCPU       16.58
 NUMERICALLY INTEGRATED DENSITY    319.9999395503
 TTTTTTTTTTTTTTTTTTTTTTTTTTTTTT NUMDFT      TELAPSE       19.58 TCPU       17.14
 CYC   1 ETOT(AU) -2.057240406241E+03 DETOT  1.34E+01 tst  0.00E+00 PX  1.00E+00
 TTTTTTTTTTTTTTTTTTTTTTTTTTTTTT DIIS        TELAPSE       19.61 TCPU       17.17
 DIIS TEST: 0.17688E+01 AT SCF   CYCLE   1 - MIX   50 %
 TTTTTTTTTTTTTTTTTTTTTTTTTTTTTT FDIK        TELAPSE       20.21 TCPU       17.76
 INSULATING STATE
 TOP OF VALENCE BANDS -    BAND    160; K   10; EIG -2.5044014E-01 AU
 TOP OF VALENCE BANDS -    BAND    160; K    1; EIG -2.5049772E-01 AU
 BOTTOM OF VIRTUAL BANDS - BAND    161; K    1; EIG -4.6824698E-02 AU
 INDIRECT ENERGY BAND GAP:   5.5407 eV
 TTTTTTTTTTTTTTTTTTTTTTTTTTTTTT PDIG        TELAPSE       20.56 TCPU       18.11
 TTTTTTTTTTTTTTTTTTTTTTTTTTTTTT MOQGAD      TELAPSE       20.56 TCPU       18.11
 TTTTTTTTTTTTTTTTTTTTTTTTTTTTTT SHELLXN     TELAPSE       24.43 TCPU       21.98
 TTTTTTTTTTTTTTTTTTTTTTTTTTTTTT MONMO3      TELAPSE       25.42 TCPU       22.97
 NUMERICALLY INTEGRATED DENSITY    319.9999362697
 TTTTTTTTTTTTTTTTTTTTTTTTTTTTTT NUMDFT      TELAPSE       25.82 TCPU       23.38
 CYC   2 ETOT(AU) -2.057708514394E+03 DETOT -4.68E-01 tst  9.61E-04 PX  1.29E-01
 TTTTTTTTTTTTTTTTTTTTTTTTTTTTTT DIIS        TELAPSE       25.86 TCPU       23.41
 DIIS TEST: 0.14415E+00 AT SCF   CYCLE   2 - DIIS ACTIVE - HISTORY:     2 CYCLES
 TTTTTTTTTTTTTTTTTTTTTTTTTTTTTT FDIK        TELAPSE       26.50 TCPU       24.01
 INSULATING STATE
 TOP OF VALENCE BANDS -    BAND    160; K   10; EIG -2.4213292E-01 AU
 TOP OF VALENCE BANDS -    BAND    160; K    1; EIG -2.4219192E-01 AU
 BOTTOM OF VIRTUAL BANDS - BAND    161; K    7; EIG -4.6346517E-03 AU
 INDIRECT ENERGY BAND GAP:   6.4627 eV
 BOTTOM OF VIRTUAL BANDS - BAND    161; K    1; EIG -1.9271337E-03 AU
 TTTTTTTTTTTTTTTTTTTTTTTTTTTTTT PDIG        TELAPSE       26.84 TCPU       24.36
 TTTTTTTTTTTTTTTTTTTTTTTTTTTTTT MOQGAD      TELAPSE       26.85 TCPU       24.36
 TTTTTTTTTTTTTTTTTTTTTTTTTTTTTT SHELLXN     TELAPSE       30.73 TCPU       28.24
 TTTTTTTTTTTTTTTTTTTTTTTTTTTTTT MONMO3      TELAPSE       31.71 TCPU       29.23
 NUMERICALLY INTEGRATED DENSITY    319.9999320955
 TTTTTTTTTTTTTTTTTTTTTTTTTTTTTT NUMDFT      TELAPSE       32.11 TCPU       29.63
 CYC   3 ETOT(AU) -2.057730700203E+03 DETOT -2.22E-02 tst  2.09E-04 PX  4.30E-02
 TTTTTTTTTTTTTTTTTTTTTTTTTTTTTT DIIS        TELAPSE       32.15 TCPU       29.66
 DIIS TEST: 0.80678E-01 AT SCF   CYCLE   3 - DIIS ACTIVE - HISTORY:     3 CYCLES
 TTTTTTTTTTTTTTTTTTTTTTTTTTTTTT FDIK        TELAPSE       32.73 TCPU       30.24
 INSULATING STATE
 TOP OF VALENCE BANDS -    BAND    160; K   10; EIG -2.5241697E-01 AU
 TOP OF VALENCE BANDS -    BAND    160; K    1; EIG -2.5252655E-01 AU
 BOTTOM OF VIRTUAL BANDS - BAND    161; K    7; EIG -1.1611946E-02 AU
 INDIRECT ENERGY BAND GAP:   6.5526 eV
 BOTTOM OF VIRTUAL BANDS - BAND    161; K    1; EIG -7.7855431E-03 AU
 TTTTTTTTTTTTTTTTTTTTTTTTTTTTTT PDIG        TELAPSE       33.08 TCPU       30.59
 TTTTTTTTTTTTTTTTTTTTTTTTTTTTTT MOQGAD      TELAPSE       33.08 TCPU       30.59
 TTTTTTTTTTTTTTTTTTTTTTTTTTTTTT SHELLXN     TELAPSE       36.94 TCPU       34.45
 TTTTTTTTTTTTTTTTTTTTTTTTTTTTTT MONMO3      TELAPSE       37.93 TCPU       35.44
 NUMERICALLY INTEGRATED DENSITY    319.9999340110
 TTTTTTTTTTTTTTTTTTTTTTTTTTTTTT NUMDFT      TELAPSE       38.44 TCPU       35.95
 CYC   4 ETOT(AU) -2.057749073402E+03 DETOT -1.84E-02 tst  1.19E-04 PX  3.23E-02
 TTTTTTTTTTTTTTTTTTTTTTTTTTTTTT DIIS        TELAPSE       38.47 TCPU       35.98
 DIIS TEST: 0.90919E-02 AT SCF   CYCLE   4 - DIIS ACTIVE - HISTORY:     4 CYCLES
 TTTTTTTTTTTTTTTTTTTTTTTTTTTTTT FDIK        TELAPSE       39.05 TCPU       36.55
 INSULATING STATE
 TOP OF VALENCE BANDS -    BAND    160; K   10; EIG -2.5009647E-01 AU
 TOP OF VALENCE BANDS -    BAND    160; K    1; EIG -2.5019785E-01 AU
 BOTTOM OF VIRTUAL BANDS - BAND    161; K    7; EIG -9.6192548E-03 AU
 INDIRECT ENERGY BAND GAP:   6.5437 eV
 BOTTOM OF VIRTUAL BANDS - BAND    161; K    1; EIG -6.5152235E-03 AU
 TTTTTTTTTTTTTTTTTTTTTTTTTTTTTT PDIG        TELAPSE       39.41 TCPU       36.91
 TTTTTTTTTTTTTTTTTTTTTTTTTTTTTT MOQGAD      TELAPSE       39.42 TCPU       36.91
 TTTTTTTTTTTTTTTTTTTTTTTTTTTTTT SHELLXN     TELAPSE       43.28 TCPU       40.77
 TTTTTTTTTTTTTTTTTTTTTTTTTTTTTT MONMO3      TELAPSE       44.27 TCPU       41.76
 NUMERICALLY INTEGRATED DENSITY    319.9999335835
 TTTTTTTTTTTTTTTTTTTTTTTTTTTTTT NUMDFT      TELAPSE       44.68 TCPU       42.17
 CYC   5 ETOT(AU) -2.057751221914E+03 DETOT -2.15E-03 tst  9.48E-06 PX  8.02E-03
 TTTTTTTTTTTTTTTTTTTTTTTTTTTTTT DIIS        TELAPSE       44.71 TCPU       42.20
 DIIS TEST: 0.83581E-03 AT SCF   CYCLE   5 - DIIS ACTIVE - HISTORY:     5 CYCLES
 TTTTTTTTTTTTTTTTTTTTTTTTTTTTTT FDIK        TELAPSE       45.30 TCPU       42.79
 INSULATING STATE
 TOP OF VALENCE BANDS -    BAND    160; K   10; EIG -2.4977253E-01 AU
 TOP OF VALENCE BANDS -    BAND    160; K    1; EIG -2.4987590E-01 AU
 BOTTOM OF VIRTUAL BANDS - BAND    161; K    7; EIG -9.3020964E-03 AU
 INDIRECT ENERGY BAND GAP:   6.5435 eV
 BOTTOM OF VIRTUAL BANDS - BAND    161; K    1; EIG -5.8504284E-03 AU
 TTTTTTTTTTTTTTTTTTTTTTTTTTTTTT PDIG        TELAPSE       45.65 TCPU       43.13
 TTTTTTTTTTTTTTTTTTTTTTTTTTTTTT MOQGAD      TELAPSE       45.65 TCPU       43.14
 TTTTTTTTTTTTTTTTTTTTTTTTTTTTTT SHELLXN     TELAPSE       49.51 TCPU       46.99
 TTTTTTTTTTTTTTTTTTTTTTTTTTTTTT MONMO3      TELAPSE       50.50 TCPU       47.99
 NUMERICALLY INTEGRATED DENSITY    319.9999334702
 TTTTTTTTTTTTTTTTTTTTTTTTTTTTTT NUMDFT      TELAPSE       51.03 TCPU       48.51
 CYC   6 ETOT(AU) -2.057751411526E+03 DETOT -1.90E-04 tst  1.42E-06 PX  1.78E-03
 TTTTTTTTTTTTTTTTTTTTTTTTTTTTTT DIIS        TELAPSE       51.06 TCPU       48.55
 DIIS TEST: 0.48984E-04 AT SCF   CYCLE   6 - DIIS ACTIVE - HISTORY:     6 CYCLES
 TTTTTTTTTTTTTTTTTTTTTTTTTTTTTT FDIK        TELAPSE       51.65 TCPU       49.13
 INSULATING STATE
 TOP OF VALENCE BANDS -    BAND    160; K   10; EIG -2.4969997E-01 AU
 TOP OF VALENCE BANDS -    BAND    160; K    1; EIG -2.4979891E-01 AU
 BOTTOM OF VIRTUAL BANDS - BAND    161; K    7; EIG -9.2838919E-03 AU
 INDIRECT ENERGY BAND GAP:   6.5421 eV
 BOTTOM OF VIRTUAL BANDS - BAND    161; K    1; EIG -5.7368313E-03 AU
 TTTTTTTTTTTTTTTTTTTTTTTTTTTTTT PDIG        TELAPSE       51.99 TCPU       49.47
 TTTTTTTTTTTTTTTTTTTTTTTTTTTTTT MOQGAD      TELAPSE       52.00 TCPU       49.48
 TTTTTTTTTTTTTTTTTTTTTTTTTTTTTT SHELLXN     TELAPSE       55.86 TCPU       53.33
 TTTTTTTTTTTTTTTTTTTTTTTTTTTTTT MONMO3      TELAPSE       56.85 TCPU       54.32
 NUMERICALLY INTEGRATED DENSITY    319.9999334610
 TTTTTTTTTTTTTTTTTTTTTTTTTTTTTT NUMDFT      TELAPSE       57.39 TCPU       54.87
 CYC   7 ETOT(AU) -2.057751421795E+03 DETOT -1.03E-05 tst  2.18E-07 PX  5.02E-04
 TTTTTTTTTTTTTTTTTTTTTTTTTTTTTT DIIS        TELAPSE       57.56 TCPU       55.04
 DIIS TEST: 0.78499E-05 AT SCF   CYCLE   7 - DIIS ACTIVE - HISTORY:     7 CYCLES
 TTTTTTTTTTTTTTTTTTTTTTTTTTTTTT FDIK        TELAPSE       58.15 TCPU       55.62
 INSULATING STATE
 TOP OF VALENCE BANDS -    BAND    160; K   10; EIG -2.4973702E-01 AU
 TOP OF VALENCE BANDS -    BAND    160; K    1; EIG -2.4983800E-01 AU
 BOTTOM OF VIRTUAL BANDS - BAND    161; K    7; EIG -9.2902704E-03 AU
 INDIRECT ENERGY BAND GAP:   6.5429 eV
 BOTTOM OF VIRTUAL BANDS - BAND    161; K    1; EIG -5.7882282E-03 AU
 TTTTTTTTTTTTTTTTTTTTTTTTTTTTTT PDIG        TELAPSE       58.50 TCPU       55.97
 TTTTTTTTTTTTTTTTTTTTTTTTTTTTTT MOQGAD      TELAPSE       58.50 TCPU       55.97
 TTTTTTTTTTTTTTTTTTTTTTTTTTTTTT SHELLXN     TELAPSE       62.36 TCPU       59.83
 TTTTTTTTTTTTTTTTTTTTTTTTTTTTTT MONMO3      TELAPSE       63.35 TCPU       60.82
 NUMERICALLY INTEGRATED DENSITY    319.9999334545
 TTTTTTTTTTTTTTTTTTTTTTTTTTTTTT NUMDFT      TELAPSE       63.89 TCPU       61.36
 CYC   8 ETOT(AU) -2.057751424312E+03 DETOT -2.52E-06 tst  1.51E-08 PX  1.84E-04
 TTTTTTTTTTTTTTTTTTTTTTTTTTTTTT DIIS        TELAPSE       63.96 TCPU       61.43
 DIIS TEST: 0.29474E-06 AT SCF   CYCLE   8 - DIIS ACTIVE - HISTORY:     8 CYCLES
 TTTTTTTTTTTTTTTTTTTTTTTTTTTTTT FDIK        TELAPSE       64.56 TCPU       62.02
 INSULATING STATE
 TOP OF VALENCE BANDS -    BAND    160; K   10; EIG -2.4974629E-01 AU
 TOP OF VALENCE BANDS -    BAND    160; K    1; EIG -2.4984656E-01 AU
 BOTTOM OF VIRTUAL BANDS - BAND    161; K    7; EIG -9.2949297E-03 AU
 INDIRECT ENERGY BAND GAP:   6.5430 eV
 BOTTOM OF VIRTUAL BANDS - BAND    161; K    1; EIG -5.7916063E-03 AU
 TTTTTTTTTTTTTTTTTTTTTTTTTTTTTT PDIG        TELAPSE       64.91 TCPU       62.37
 TTTTTTTTTTTTTTTTTTTTTTTTTTTTTT MOQGAD      TELAPSE       64.91 TCPU       62.38
 TTTTTTTTTTTTTTTTTTTTTTTTTTTTTT SHELLXN     TELAPSE       68.77 TCPU       66.23
 TTTTTTTTTTTTTTTTTTTTTTTTTTTTTT MONMO3      TELAPSE       69.76 TCPU       67.22
 NUMERICALLY INTEGRATED DENSITY    319.9999334546
 TTTTTTTTTTTTTTTTTTTTTTTTTTTTTT NUMDFT      TELAPSE       70.16 TCPU       67.62
 CYC   9 ETOT(AU) -2.057751424569E+03 DETOT -2.56E-07 tst  1.34E-09 PX  5.18E-05
 TTTTTTTTTTTTTTTTTTTTTTTTTTTTTT DIIS        TELAPSE       70.19 TCPU       67.65
 DIIS TEST: 0.72234E-07 AT SCF   CYCLE   9 - DIIS ACTIVE - HISTORY:     9 CYCLES
 TTTTTTTTTTTTTTTTTTTTTTTTTTTTTT FDIK        TELAPSE       70.79 TCPU       68.25
 INSULATING STATE
 TOP OF VALENCE BANDS -    BAND    160; K   10; EIG -2.4974489E-01 AU
 TOP OF VALENCE BANDS -    BAND    160; K    1; EIG -2.4984547E-01 AU
 BOTTOM OF VIRTUAL BANDS - BAND    161; K    7; EIG -9.2999048E-03 AU
 INDIRECT ENERGY BAND GAP:   6.5428 eV
 BOTTOM OF VIRTUAL BANDS - BAND    161; K    1; EIG -5.7891302E-03 AU
 TTTTTTTTTTTTTTTTTTTTTTTTTTTTTT PDIG        TELAPSE       71.13 TCPU       68.59
 TTTTTTTTTTTTTTTTTTTTTTTTTTTTTT MOQGAD      TELAPSE       71.14 TCPU       68.60
 TTTTTTTTTTTTTTTTTTTTTTTTTTTTTT SHELLXN     TELAPSE       75.01 TCPU       72.45
 TTTTTTTTTTTTTTTTTTTTTTTTTTTTTT MONMO3      TELAPSE       75.99 TCPU       73.43
 NUMERICALLY INTEGRATED DENSITY    319.9999334541
 TTTTTTTTTTTTTTTTTTTTTTTTTTTTTT NUMDFT      TELAPSE       76.52 TCPU       73.96
 CYC  10 ETOT(AU) -2.057751424589E+03 DETOT -2.03E-08 tst  1.06E-10 PX  2.58E-05
 TTTTTTTTTTTTTTTTTTTTTTTTTTTTTT DIIS        TELAPSE       76.55 TCPU       73.99
 DIIS TEST: 0.52732E-08 AT SCF   CYCLE  10 - DIIS ACTIVE - HISTORY:    10 CYCLES
 TTTTTTTTTTTTTTTTTTTTTTTTTTTTTT FDIK        TELAPSE       77.15 TCPU       74.58
 INSULATING STATE
 TOP OF VALENCE BANDS -    BAND    160; K   10; EIG -2.4974478E-01 AU
 TOP OF VALENCE BANDS -    BAND    160; K    1; EIG -2.4984532E-01 AU
 BOTTOM OF VIRTUAL BANDS - BAND    161; K    7; EIG -9.2978277E-03 AU
 INDIRECT ENERGY BAND GAP:   6.5429 eV
 BOTTOM OF VIRTUAL BANDS - BAND    161; K    1; EIG -5.7888821E-03 AU
 TTTTTTTTTTTTTTTTTTTTTTTTTTTTTT PDIG        TELAPSE       77.50 TCPU       74.93
 TTTTTTTTTTTTTTTTTTTTTTTTTTTTTT MOQGAD      TELAPSE       77.51 TCPU       74.94
 TTTTTTTTTTTTTTTTTTTTTTTTTTTTTT SHELLXN     TELAPSE       81.36 TCPU       78.79
 TTTTTTTTTTTTTTTTTTTTTTTTTTTTTT MONMO3      TELAPSE       82.35 TCPU       79.78
 NUMERICALLY INTEGRATED DENSITY    319.9999334537
 TTTTTTTTTTTTTTTTTTTTTTTTTTTTTT NUMDFT      TELAPSE       82.84 TCPU       80.27
 CYC  11 ETOT(AU) -2.057751424607E+03 DETOT -1.80E-08 tst  1.10E-11 PX  5.78E-06
 TTTTTTTTTTTTTTTTTTTTTTTTTTTTTT DIIS        TELAPSE       82.87 TCPU       80.30
 DIIS TEST: 0.42881E-09 AT SCF   CYCLE  11 - DIIS ACTIVE - HISTORY:    11 CYCLES
 TTTTTTTTTTTTTTTTTTTTTTTTTTTTTT FDIK        TELAPSE       83.47 TCPU       80.89
 INSULATING STATE
 TOP OF VALENCE BANDS -    BAND    160; K   10; EIG -2.4974436E-01 AU
 TOP OF VALENCE BANDS -    BAND    160; K    1; EIG -2.4984491E-01 AU
 BOTTOM OF VIRTUAL BANDS - BAND    161; K    7; EIG -9.2978270E-03 AU
 INDIRECT ENERGY BAND GAP:   6.5429 eV
 BOTTOM OF VIRTUAL BANDS - BAND    161; K    1; EIG -5.7886799E-03 AU
 TTTTTTTTTTTTTTTTTTTTTTTTTTTTTT PDIG        TELAPSE       83.82 TCPU       81.25
 TTTTTTTTTTTTTTTTTTTTTTTTTTTTTT MOQGAD      TELAPSE       83.83 TCPU       81.25
 TTTTTTTTTTTTTTTTTTTTTTTTTTTTTT SHELLXN     TELAPSE       87.69 TCPU       85.11
 TTTTTTTTTTTTTTTTTTTTTTTTTTTTTT MONMO3      TELAPSE       88.68 TCPU       86.10
 NUMERICALLY INTEGRATED DENSITY    319.9999334538
 TTTTTTTTTTTTTTTTTTTTTTTTTTTTTT NUMDFT      TELAPSE       89.08 TCPU       86.50
 CYC  12 ETOT(AU) -2.057751424605E+03 DETOT  2.30E-09 tst  9.79E-13 PX  1.57E-06
 TTTTTTTTTTTTTTTTTTTTTTTTTTTTTT DIIS        TELAPSE       89.11 TCPU       86.54
 DIIS TEST: 0.35679E-10 AT SCF   CYCLE  12 - DIIS ACTIVE - HISTORY:    12 CYCLES
 TTTTTTTTTTTTTTTTTTTTTTTTTTTTTT FDIK        TELAPSE       89.70 TCPU       87.12
 INSULATING STATE
 TOP OF VALENCE BANDS -    BAND    160; K   10; EIG -2.4974425E-01 AU
 TOP OF VALENCE BANDS -    BAND    160; K    1; EIG -2.4984481E-01 AU
 BOTTOM OF VIRTUAL BANDS - BAND    161; K    7; EIG -9.2976824E-03 AU
 INDIRECT ENERGY BAND GAP:   6.5429 eV
 BOTTOM OF VIRTUAL BANDS - BAND    161; K    1; EIG -5.7885093E-03 AU
 TTTTTTTTTTTTTTTTTTTTTTTTTTTTTT PDIG        TELAPSE       90.05 TCPU       87.46
 TTTTTTTTTTTTTTTTTTTTTTTTTTTTTT MOQGAD      TELAPSE       90.05 TCPU       87.47
 TTTTTTTTTTTTTTTTTTTTTTTTTTTTTT SHELLXN     TELAPSE       93.91 TCPU       91.33
 TTTTTTTTTTTTTTTTTTTTTTTTTTTTTT MONMO3      TELAPSE       94.90 TCPU       92.32
 NUMERICALLY INTEGRATED DENSITY    319.9999334538
 TTTTTTTTTTTTTTTTTTTTTTTTTTTTTT NUMDFT      TELAPSE       95.45 TCPU       92.87
 CYC  13 ETOT(AU) -2.057751424605E+03 DETOT -5.46E-11 tst  1.33E-13 PX  4.50E-07
 TTTTTTTTTTTTTTTTTTTTTTTTTTTTTT DIIS        TELAPSE       95.51 TCPU       92.92
 DIIS TEST: 0.19578E-11 AT SCF   CYCLE  13 - DIIS ACTIVE - HISTORY:    13 CYCLES
 TTTTTTTTTTTTTTTTTTTTTTTTTTTTTT FDIK        TELAPSE       96.09 TCPU       93.50
 INSULATING STATE
 TOP OF VALENCE BANDS -    BAND    160; K   10; EIG -2.4974421E-01 AU
[...]
Note: The following floating-point exceptions are signalling: IEEE_UNDERFLOW_FLAG IEEE_DENORMAL
Note: The following floating-point exceptions are signalling: IEEE_UNDERFLOW_FLAG IEEE_DENORMAL
Note: The following floating-point exceptions are signalling: IEEE_UNDERFLOW_FLAG IEEE_DENORMAL
Note: The following floating-point exceptions are signalling: IEEE_UNDERFLOW_FLAG IEEE_DENORMAL
Note: The following floating-point exceptions are signalling: IEEE_UNDERFLOW_FLAG IEEE_DENORMAL
Note: The following floating-point exceptions are signalling: IEEE_UNDERFLOW_FLAG IEEE_DENORMAL
Note: The following floating-point exceptions are signalling: IEEE_UNDERFLOW_FLAG IEEE_DENORMAL
Note: The following floating-point exceptions are signalling: IEEE_UNDERFLOW_FLAG IEEE_DENORMAL
Note: The following floating-point exceptions are signalling: IEEE_UNDERFLOW_FLAG IEEE_DENORMAL
Note: The following floating-point exceptions are signalling: IEEE_UNDERFLOW_FLAG IEEE_DENORMAL
Note: The following floating-point exceptions are signalling: IEEE_UNDERFLOW_FLAG IEEE_DENORMAL
Note: The following floating-point exceptions are signalling: IEEE_UNDERFLOW_FLAG IEEE_DENORMAL
Note: The following floating-point exceptions are signalling: IEEE_UNDERFLOW_FLAG IEEE_DENORMAL
Note: The following floating-point exceptions are signalling: IEEE_UNDERFLOW_FLAG IEEE_DENORMAL
Note: The following floating-point exceptions are signalling: IEEE_UNDERFLOW_FLAG IEEE_DENORMAL
Note: The following floating-point exceptions are signalling: IEEE_UNDERFLOW_FLAG IEEE_DENORMAL
Note: The following floating-point exceptions are signalling: IEEE_UNDERFLOW_FLAG IEEE_DENORMAL
Note: The following floating-point exceptions are signalling: IEEE_UNDERFLOW_FLAG IEEE_DENORMAL
Note: The following floating-point exceptions are signalling: IEEE_UNDERFLOW_FLAG IEEE_DENORMAL
Note: The following floating-point exceptions are signalling: IEEE_UNDERFLOW_FLAG IEEE_DENORMAL
Note: The following floating-point exceptions are signalling: IEEE_UNDERFLOW_FLAG IEEE_DENORMAL
Note: The following floating-point exceptions are signalling: IEEE_UNDERFLOW_FLAG IEEE_DENORMAL
Note: The following floating-point exceptions are signalling: IEEE_UNDERFLOW_FLAG IEEE_DENORMAL
Note: The following floating-point exceptions are signalling: IEEE_UNDERFLOW_FLAG IEEE_DENORMAL
Note: The following floating-point exceptions are signalling: IEEE_UNDERFLOW_FLAG IEEE_DENORMAL
Note: The following floating-point exceptions are signalling: IEEE_UNDERFLOW_FLAG IEEE_DENORMAL
Note: The following floating-point exceptions are signalling: IEEE_UNDERFLOW_FLAG IEEE_DENORMAL
Note: The following floating-point exceptions are signalling: IEEE_UNDERFLOW_FLAG IEEE_DENORMAL
Note: The following floating-point exceptions are signalling: IEEE_UNDERFLOW_FLAG IEEE_DENORMAL
Note: The following floating-point exceptions are signalling: IEEE_UNDERFLOW_FLAG IEEE_DENORMAL
Note: The following floating-point exceptions are signalling: IEEE_UNDERFLOW_FLAG IEEE_DENORMAL
Note: The following floating-point exceptions are signalling: IEEE_UNDERFLOW_FLAG IEEE_DENORMAL
Note: The following floating-point exceptions are signalling: IEEE_UNDERFLOW_FLAG IEEE_DENORMAL
Note: The following floating-point exceptions are signalling: IEEE_UNDERFLOW_FLAG IEEE_DENORMAL
Note: The following floating-point exceptions are signalling: IEEE_UNDERFLOW_FLAG IEEE_DENORMAL
Note: The following floating-point exceptions are signalling: IEEE_UNDERFLOW_FLAG IEEE_DENORMAL
Note: The following floating-point exceptions are signalling: IEEE_UNDERFLOW_FLAG IEEE_DENORMAL
Note: The following floating-point exceptions are signalling: IEEE_UNDERFLOW_FLAG IEEE_DENORMAL
Note: The following floating-point exceptions are signalling: IEEE_UNDERFLOW_FLAG IEEE_DENORMAL
Note: The following floating-point exceptions are signalling: IEEE_UNDERFLOW_FLAG IEEE_DENORMAL
Note: The following floating-point exceptions are signalling: IEEE_UNDERFLOW_FLAG IEEE_DENORMAL
Note: The following floating-point exceptions are signalling: IEEE_UNDERFLOW_FLAG IEEE_DENORMAL
Note: The following floating-point exceptions are signalling: IEEE_UNDERFLOW_FLAG IEEE_DENORMAL
Note: The following floating-point exceptions are signalling: IEEE_UNDERFLOW_FLAG IEEE_DENORMAL
Note: The following floating-point exceptions are signalling: IEEE_UNDERFLOW_FLAG IEEE_DENORMAL
Note: The following floating-point exceptions are signalling: IEEE_UNDERFLOW_FLAG IEEE_DENORMAL
Note: The following floating-point exceptions are signalling: IEEE_UNDERFLOW_FLAG IEEE_DENORMAL
Note: The following floating-point exceptions are signalling: IEEE_UNDERFLOW_FLAG IEEE_DENORMAL
Note: The following floating-point exceptions are signalling: IEEE_UNDERFLOW_FLAG IEEE_DENORMAL
Note: The following floating-point exceptions are signalling: IEEE_UNDERFLOW_FLAG IEEE_DENORMAL
Note: The following floating-point exceptions are signalling: IEEE_UNDERFLOW_FLAG IEEE_DENORMAL
Note: The following floating-point exceptions are signalling: IEEE_UNDERFLOW_FLAG IEEE_DENORMAL
Note: The following floating-point exceptions are signalling: IEEE_UNDERFLOW_FLAG IEEE_DENORMAL
Note: The following floating-point exceptions are signalling: IEEE_UNDERFLOW_FLAG IEEE_DENORMAL
Note: The following floating-point exceptions are signalling: IEEE_UNDERFLOW_FLAG IEEE_DENORMAL
Note: The following floating-point exceptions are signalling: IEEE_UNDERFLOW_FLAG IEEE_DENORMAL
Note: The following floating-point exceptions are signalling: IEEE_UNDERFLOW_FLAG IEEE_DENORMAL
Note: The following floating-point exceptions are signalling: IEEE_UNDERFLOW_FLAG IEEE_DENORMAL
Note: The following floating-point exceptions are signalling: IEEE_UNDERFLOW_FLAG IEEE_DENORMAL
Note: The following floating-point exceptions are signalling: IEEE_UNDERFLOW_FLAG IEEE_DENORMAL
Note: The following floating-point exceptions are signalling: IEEE_UNDERFLOW_FLAG IEEE_DENORMAL
Note: The following floating-point exceptions are signalling: IEEE_UNDERFLOW_FLAG IEEE_DENORMAL
Note: The following floating-point exceptions are signalling: IEEE_UNDERFLOW_FLAG IEEE_DENORMAL
Note: The following floating-point exceptions are signalling: IEEE_UNDERFLOW_FLAG IEEE_DENORMAL
Note: The following floating-point exceptions are signalling: IEEE_UNDERFLOW_FLAG IEEE_DENORMAL
Note: The following floating-point exceptions are signalling: IEEE_UNDERFLOW_FLAG IEEE_DENORMAL
Note: The following floating-point exceptions are signalling: IEEE_UNDERFLOW_FLAG IEEE_DENORMAL
Note: The following floating-point exceptions are signalling: IEEE_UNDERFLOW_FLAG IEEE_DENORMAL
Note: The following floating-point exceptions are signalling: IEEE_UNDERFLOW_FLAG IEEE_DENORMAL
Note: The following floating-point exceptions are signalling: IEEE_UNDERFLOW_FLAG IEEE_DENORMAL
Note: The following floating-point exceptions are signalling: IEEE_UNDERFLOW_FLAG IEEE_DENORMAL
Note: The following floating-point exceptions are signalling: IEEE_UNDERFLOW_FLAG IEEE_DENORMAL
Note: The following floating-point exceptions are signalling: IEEE_UNDERFLOW_FLAG IEEE_DENORMAL
Note: The following floating-point exceptions are signalling: IEEE_UNDERFLOW_FLAG IEEE_DENORMAL
Note: The following floating-point exceptions are signalling: IEEE_UNDERFLOW_FLAG IEEE_DENORMAL
Note: The following floating-point exceptions are signalling: IEEE_UNDERFLOW_FLAG IEEE_DENORMAL
Note: The following floating-point exceptions are signalling: IEEE_UNDERFLOW_FLAG IEEE_DENORMAL
Note: The following floating-point exceptions are signalling: IEEE_UNDERFLOW_FLAG IEEE_DENORMAL
Note: The following floating-point exceptions are signalling: IEEE_UNDERFLOW_FLAG IEEE_DENORMAL
Note: The following floating-point exceptions are signalling: IEEE_UNDERFLOW_FLAG IEEE_DENORMAL
Note: The following floating-point exceptions are signalling: IEEE_UNDERFLOW_FLAG IEEE_DENORMAL
Note: The following floating-point exceptions are signalling: IEEE_UNDERFLOW_FLAG IEEE_DENORMAL
Note: The following floating-point exceptions are signalling: IEEE_UNDERFLOW_FLAG IEEE_DENORMAL
Note: The following floating-point exceptions are signalling: IEEE_UNDERFLOW_FLAG IEEE_DENORMAL
Note: The following floating-point exceptions are signalling: IEEE_UNDERFLOW_FLAG IEEE_DENORMAL
Note: The following floating-point exceptions are signalling: IEEE_UNDERFLOW_FLAG IEEE_DENORMAL
Note: The following floating-point exceptions are signalling: IEEE_UNDERFLOW_FLAG IEEE_DENORMAL
Note: The following floating-point exceptions are signalling: IEEE_UNDERFLOW_FLAG IEEE_DENORMAL
Note: The following floating-point exceptions are signalling: IEEE_UNDERFLOW_FLAG IEEE_DENORMAL
Note: The following floating-point exceptions are signalling: IEEE_UNDERFLOW_FLAG IEEE_DENORMAL
Note: The following floating-point exceptions are signalling: IEEE_UNDERFLOW_FLAG IEEE_DENORMAL
Note: The following floating-point exceptions are signalling: IEEE_UNDERFLOW_FLAG IEEE_DENORMAL
Note: The following floating-point exceptions are signalling: IEEE_UNDERFLOW_FLAG IEEE_DENORMAL
Note: The following floating-point exceptions are signalling: IEEE_UNDERFLOW_FLAG IEEE_DENORMAL
Note: The following floating-point exceptions are signalling: IEEE_UNDERFLOW_FLAG IEEE_DENORMAL
Note: The following floating-point exceptions are signalling: IEEE_UNDERFLOW_FLAG IEEE_DENORMAL
Note: The following floating-point exceptions are signalling: IEEE_UNDERFLOW_FLAG IEEE_DENORMAL
Note: The following floating-point exceptions are signalling: IEEE_UNDERFLOW_FLAG IEEE_DENORMAL
Note: The following floating-point exceptions are signalling: IEEE_UNDERFLOW_FLAG IEEE_DENORMAL
Note: The following floating-point exceptions are signalling: IEEE_UNDERFLOW_FLAG IEEE_DENORMAL
Note: The following floating-point exceptions are signalling: IEEE_UNDERFLOW_FLAG IEEE_DENORMAL
Note: The following floating-point exceptions are signalling: IEEE_UNDERFLOW_FLAG IEEE_DENORMAL
Note: The following floating-point exceptions are signalling: IEEE_UNDERFLOW_FLAG IEEE_DENORMAL
Note: The following floating-point exceptions are signalling: IEEE_UNDERFLOW_FLAG IEEE_DENORMAL
Note: The following floating-point exceptions are signalling: IEEE_UNDERFLOW_FLAG IEEE_DENORMAL
Note: The following floating-point exceptions are signalling: IEEE_UNDERFLOW_FLAG IEEE_DENORMAL
Note: The following floating-point exceptions are signalling: IEEE_UNDERFLOW_FLAG IEEE_DENORMAL
Note: The following floating-point exceptions are signalling: IEEE_UNDERFLOW_FLAG IEEE_DENORMAL
Note: The following floating-point exceptions are signalling: IEEE_UNDERFLOW_FLAG IEEE_DENORMAL
Note: The following floating-point exceptions are signalling: IEEE_UNDERFLOW_FLAG IEEE_DENORMAL
Note: The following floating-point exceptions are signalling: IEEE_UNDERFLOW_FLAG IEEE_DENORMAL
Note: The following floating-point exceptions are signalling: IEEE_UNDERFLOW_FLAG IEEE_DENORMAL
Note: The following floating-point exceptions are signalling: IEEE_UNDERFLOW_FLAG IEEE_DENORMAL
Note: The following floating-point exceptions are signalling: IEEE_UNDERFLOW_FLAG IEEE_DENORMAL
Note: The following floating-point exceptions are signalling: IEEE_UNDERFLOW_FLAG IEEE_DENORMAL
Note: The following floating-point exceptions are signalling: IEEE_UNDERFLOW_FLAG IEEE_DENORMAL
Note: The following floating-point exceptions are signalling: IEEE_UNDERFLOW_FLAG IEEE_DENORMAL
Note: The following floating-point exceptions are signalling: IEEE_UNDERFLOW_FLAG IEEE_DENORMAL
Note: The following floating-point exceptions are signalling: IEEE_UNDERFLOW_FLAG IEEE_DENORMAL
Note: The following floating-point exceptions are signalling: IEEE_UNDERFLOW_FLAG IEEE_DENORMAL
Note: The following floating-point exceptions are signalling: IEEE_UNDERFLOW_FLAG IEEE_DENORMAL
Note: The following floating-point exceptions are signalling: IEEE_UNDERFLOW_FLAG IEEE_DENORMAL
Note: The following floating-point exceptions are signalling: IEEE_UNDERFLOW_FLAG IEEE_DENORMAL
Note: The following floating-point exceptions are signalling: IEEE_UNDERFLOW_FLAG IEEE_DENORMAL
Note: The following floating-point exceptions are signalling: IEEE_UNDERFLOW_FLAG IEEE_DENORMAL
Note: The following floating-point exceptions are signalling: IEEE_UNDERFLOW_FLAG IEEE_DENORMAL
Note: The following floating-point exceptions are signalling: IEEE_UNDERFLOW_FLAG IEEE_DENORMAL
Note: The following floating-point exceptions are signalling: IEEE_UNDERFLOW_FLAG IEEE_DENORMAL
Note: The following floating-point exceptions are signalling: IEEE_UNDERFLOW_FLAG IEEE_DENORMAL
Note: The following floating-point exceptions are signalling: IEEE_UNDERFLOW_FLAG IEEE_DENORMAL
Note: The following floating-point exceptions are signalling: IEEE_UNDERFLOW_FLAG IEEE_DENORMAL
Note: The following floating-point exceptions are signalling: IEEE_UNDERFLOW_FLAG IEEE_DENORMAL
Note: The following floating-point exceptions are signalling: IEEE_UNDERFLOW_FLAG IEEE_DENORMAL
Note: The following floating-point exceptions are signalling: IEEE_UNDERFLOW_FLAG IEEE_DENORMAL
Note: The following floating-point exceptions are signalling: IEEE_UNDERFLOW_FLAG IEEE_DENORMAL
Note: The following floating-point exceptions are signalling: IEEE_UNDERFLOW_FLAG IEEE_DENORMAL
Note: The following floating-point exceptions are signalling: IEEE_UNDERFLOW_FLAG IEEE_DENORMAL
Note: The following floating-point exceptions are signalling: IEEE_UNDERFLOW_FLAG IEEE_DENORMAL
Note: The following floating-point exceptions are signalling: IEEE_UNDERFLOW_FLAG IEEE_DENORMAL
Note: The following floating-point exceptions are signalling: IEEE_UNDERFLOW_FLAG IEEE_DENORMAL
Note: The following floating-point exceptions are signalling: IEEE_UNDERFLOW_FLAG IEEE_DENORMAL
Note: The following floating-point exceptions are signalling: IEEE_UNDERFLOW_FLAG IEEE_DENORMAL
Note: The following floating-point exceptions are signalling: IEEE_UNDERFLOW_FLAG IEEE_DENORMAL
Note: The following floating-point exceptions are signalling: IEEE_UNDERFLOW_FLAG IEEE_DENORMAL
Note: The following floating-point exceptions are signalling: IEEE_UNDERFLOW_FLAG IEEE_DENORMAL
Note: The following floating-point exceptions are signalling: IEEE_UNDERFLOW_FLAG IEEE_DENORMAL
Note: The following floating-point exceptions are signalling: IEEE_UNDERFLOW_FLAG IEEE_DENORMAL
Note: The following floating-point exceptions are signalling: IEEE_UNDERFLOW_FLAG IEEE_DENORMAL
Note: The following floating-point exceptions are signalling: IEEE_UNDERFLOW_FLAG IEEE_DENORMAL
Note: The following floating-point exceptions are signalling: IEEE_UNDERFLOW_FLAG IEEE_DENORMAL
Note: The following floating-point exceptions are signalling: IEEE_UNDERFLOW_FLAG IEEE_DENORMAL
Note: The following floating-point exceptions are signalling: IEEE_UNDERFLOW_FLAG IEEE_DENORMAL
Note: The following floating-point exceptions are signalling: IEEE_UNDERFLOW_FLAG IEEE_DENORMAL
Note: The following floating-point exceptions are signalling: IEEE_UNDERFLOW_FLAG IEEE_DENORMAL
Note: The following floating-point exceptions are signalling: IEEE_UNDERFLOW_FLAG IEEE_DENORMAL
Note: The following floating-point exceptions are signalling: IEEE_UNDERFLOW_FLAG IEEE_DENORMAL
Note: The following floating-point exceptions are signalling: IEEE_UNDERFLOW_FLAG IEEE_DENORMAL
Note: The following floating-point exceptions are signalling: IEEE_UNDERFLOW_FLAG IEEE_DENORMAL
Note: The following floating-point exceptions are signalling: IEEE_UNDERFLOW_FLAG IEEE_DENORMAL
Note: The following floating-point exceptions are signalling: IEEE_UNDERFLOW_FLAG IEEE_DENORMAL
Note: The following floating-point exceptions are signalling: IEEE_UNDERFLOW_FLAG IEEE_DENORMAL
Note: The following floating-point exceptions are signalling: IEEE_UNDERFLOW_FLAG IEEE_DENORMAL
Note: The following floating-point exceptions are signalling: IEEE_UNDERFLOW_FLAG IEEE_DENORMAL
Note: The following floating-point exceptions are signalling: IEEE_UNDERFLOW_FLAG IEEE_DENORMAL
Note: The following floating-point exceptions are signalling: IEEE_UNDERFLOW_FLAG IEEE_DENORMAL
Note: The following floating-point exceptions are signalling: IEEE_UNDERFLOW_FLAG IEEE_DENORMAL
Note: The following floating-point exceptions are signalling: IEEE_UNDERFLOW_FLAG IEEE_DENORMAL
Note: The following floating-point exceptions are signalling: IEEE_UNDERFLOW_FLAG IEEE_DENORMAL
Note: The following floating-point exceptions are signalling: IEEE_UNDERFLOW_FLAG IEEE_DENORMAL
Note: The following floating-point exceptions are signalling: IEEE_UNDERFLOW_FLAG IEEE_DENORMAL
Note: The following floating-point exceptions are signalling: IEEE_UNDERFLOW_FLAG IEEE_DENORMAL
Note: The following floating-point exceptions are signalling: IEEE_UNDERFLOW_FLAG IEEE_DENORMAL
Note: The following floating-point exceptions are signalling: IEEE_UNDERFLOW_FLAG IEEE_DENORMAL
Note: The following floating-point exceptions are signalling: IEEE_UNDERFLOW_FLAG IEEE_DENORMAL
Note: The following floating-point exceptions are signalling: IEEE_UNDERFLOW_FLAG IEEE_DENORMAL
Note: The following floating-point exceptions are signalling: IEEE_UNDERFLOW_FLAG IEEE_DENORMAL
Note: The following floating-point exceptions are signalling: IEEE_UNDERFLOW_FLAG IEEE_DENORMAL
Note: The following floating-point exceptions are signalling: IEEE_UNDERFLOW_FLAG IEEE_DENORMAL
Note: The following floating-point exceptions are signalling: IEEE_UNDERFLOW_FLAG IEEE_DENORMAL
Note: The following floating-point exceptions are signalling: IEEE_UNDERFLOW_FLAG IEEE_DENORMAL
Note: The following floating-point exceptions are signalling: IEEE_UNDERFLOW_FLAG IEEE_DENORMAL
Note: The following floating-point exceptions are signalling: IEEE_UNDERFLOW_FLAG IEEE_DENORMAL
Note: The following floating-point exceptions are signalling: IEEE_UNDERFLOW_FLAG IEEE_DENORMAL
Note: The following floating-point exceptions are signalling: IEEE_UNDERFLOW_FLAG IEEE_DENORMAL
Note: The following floating-point exceptions are signalling: IEEE_UNDERFLOW_FLAG IEEE_DENORMAL
Note: The following floating-point exceptions are signalling: IEEE_UNDERFLOW_FLAG IEEE_DENORMAL
Note: The following floating-point exceptions are signalling: IEEE_UNDERFLOW_FLAG IEEE_DENORMAL
Note: The following floating-point exceptions are signalling: IEEE_UNDERFLOW_FLAG IEEE_DENORMAL
Note: The following floating-point exceptions are signalling: IEEE_UNDERFLOW_FLAG IEEE_DENORMAL
Note: The following floating-point exceptions are signalling: IEEE_UNDERFLOW_FLAG IEEE_DENORMAL
Note: The following floating-point exceptions are signalling: IEEE_UNDERFLOW_FLAG IEEE_DENORMAL
Note: The following floating-point exceptions are signalling: IEEE_UNDERFLOW_FLAG IEEE_DENORMAL
Note: The following floating-point exceptions are signalling: IEEE_UNDERFLOW_FLAG IEEE_DENORMAL
Note: The following floating-point exceptions are signalling: IEEE_UNDERFLOW_FLAG IEEE_DENORMAL
Note: The following floating-point exceptions are signalling: IEEE_UNDERFLOW_FLAG IEEE_DENORMAL
Note: The following floating-point exceptions are signalling: IEEE_UNDERFLOW_FLAG IEEE_DENORMAL
Note: The following floating-point exceptions are signalling: IEEE_UNDERFLOW_FLAG IEEE_DENORMAL
Note: The following floating-point exceptions are signalling: IEEE_UNDERFLOW_FLAG IEEE_DENORMAL
Note: The following floating-point exceptions are signalling: IEEE_UNDERFLOW_FLAG IEEE_DENORMAL
Note: The following floating-point exceptions are signalling: IEEE_UNDERFLOW_FLAG IEEE_DENORMAL
Note: The following floating-point exceptions are signalling: IEEE_UNDERFLOW_FLAG IEEE_DENORMAL
Note: The following floating-point exceptions are signalling: IEEE_UNDERFLOW_FLAG IEEE_DENORMAL
Note: The following floating-point exceptions are signalling: IEEE_UNDERFLOW_FLAG IEEE_DENORMAL
Note: The following floating-point exceptions are signalling: IEEE_UNDERFLOW_FLAG IEEE_DENORMAL
Note: The following floating-point exceptions are signalling: IEEE_UNDERFLOW_FLAG IEEE_DENORMAL
Note: The following floating-point exceptions are signalling: IEEE_UNDERFLOW_FLAG IEEE_DENORMAL
Note: The following floating-point exceptions are signalling: IEEE_UNDERFLOW_FLAG IEEE_DENORMAL
mv: cannot stat 'slurm-1206294.out': No such file or directory
