Lmod has detected the following error: The following module(s) are unknown:
"epcc-job-env"

Please check the spelling or version number. Also try "module spider ..."
It is also possible your cache file is out-of-date; it may help to try:
  $ module --ignore-cache load "epcc-job-env"

Also make sure that all modulefiles written in TCL start with the string
#%Module




Warning: You have enabled access to software packages installed
by external parties on ARCHER2 or those that are not fully-supported.
The ARCHER2 CSE service does not test these packages. The service desk
will make reasonable efforts to assist with questions on the use of
these packages but some issues may not be able to be resolved by the
service and they may direct you to seek help from external parties.


         256 PROCESSORS WORKING

         
 *******************************************************************************
 *                                                                             *
 *                               CRYSTAL17                                     *
 *                      public : 1.0.2 - March 1st, 2018 STFC/Archer2 build    *
 *                       HTTP://WWW.CRYSTAL.UNITO.IT                           *
 *                                                                             *
 *                              MAIN AUTHORS                                   *
 *                                                                             *
 *  R. DOVESI(1,11), V.R. SAUNDERS(2), C. ROETTI(1,11), R. ORLANDO(1,11),      *
 *  C.M. ZICOVICH-WILSON(1,3), F. PASCALE(4), B. CIVALLERI(1,11),              *
 *  K. DOLL(5), N.M. HARRISON(2,6), I.J. BUSH(7), Ph. D'ARCO(8),               *
 *  M. LLUNELL(9), M. CAUSA'(10), Y. NOEL(8), L. MASCHIO(1,11), A. ERBA(1,11)  *
 *  M. RE'RAT(14), S. CASASSA(1,11)                                            *
 *                                                                             *
 *        CONTRIBUTIONS TO THE CODE HAVE ALSO BEEN GIVEN BY                    *
 *                                                                             *
 *  M. FERRABONE(1,11), M. DE LA PIERRE(1,11), M. FERRERO(1,11),               *
 *  J. BAIMA(1,11), E. ALBANESE(1,11), M.F. PEINTINGER(12), R. BAST(13),       *
 *  B. KIRTMAN(15), V. LACIVITA(1,11), R. DEMICHELIS(1,16)                     *
 *  G. BRANDEBURG(17), S. SALUSTRO(1,11), G. SANSONE(1,11)                     *
 *  M.T. RUGGIERO(18)                                                          *
 *                                                                             *
 * (1) THEORETICAL CHEMISTRY GROUP - UNIVERSITA' DI TORINO - TORINO (ITALY)    *
 * (2) COMPUTATIONAL SCIENCE & ENGINEERING DEPARTMENT - STFC DARESBURY (UK)    *
 * (3) UNIVERSIDAD AUTONOMA DEL ESTADO DE MORELOS - CUERNAVACA (MEXICO)        *
 * (4) UNIVERSITE' DE LORRAINE - NANCY (FRANCE)                                *
 * (5) UNIVERSITAET STUTTGART- STUTTGART (GERMANY)                             *
 * (6) IMPERIAL COLLEGE - LONDON (UK)                                          *
 * (7) OXFORD E-RESEARCH CENTRE - OXFORD (UK)                                  *
 * (8) UPMC - SORBONNE UNIVERSITES - PARIS (FRANCE)                            *
 * (9) UNIVERSIDAD DE BARCELONA - BARCELONA (SPAIN)                            *
 *(10) UNIVERSITA' DI NAPOLI "FEDERICO II" - NAPOLI (ITALY)                    *
 *(11) NIS - NANOSTRUCTURED INTERFACES AND SURFACES - TORINO (ITALY)           *
 *(12) MPI FUER CHEMISCHE ENERGIEKONVERSION - MUELHEIM AN DER RUHR (GERMANY)   *
 *(13) UNIVERSITY OF TROMSO - TROMSO (NORWAY)                                  *
 *(14) UNIVERSITE' DE PAU ET DES PAYS DE L'ADOUR - PAU (FRANCE)                *
 *(15) UNIVERSITY OF CALIFORNIA SANTA BARBARA - SANTA BARBARA (USA)            *
 *(16) CURTIN UNIVERSITY - PERTH (AUSTRALIA)                                   *
 *(17) UNIVERSITY COLLEGE LONDON - LONDON (UK)                                 *
 *(18) CAMBRIDGE UNIVERSITY - CAMBRIDGE (UK)                                   *
 *                                                                             *
 *******************************************************************************
 EEEEEEEEEE STARTING  DATE 05 03 2022 TIME 20:59:57.3
 F1 vol step6 freq - PBEh-3c                                                     

 GEOMETRY INPUT FROM EXTERNAL FILE (FORTRAN UNIT 34)
 3D - CRYSTAL 

 *******************************************************************************
 LATTICE PARAMETERS  (ANGSTROMS AND DEGREES) - PRIMITIVE CELL
       A          B          C        ALPHA      BETA     GAMMA        VOLUME
    7.23792    9.47210   12.82624    90.00000 116.94839  90.00000    783.861809

 NUMBER OF IRREDUCIBLE ATOMS IN THE CELL:   20

 CARTESIAN COORDINATES (ANGSTROM) - IRREDUCIBLE ATOMS AND SYMMETRY RELATED

 AT.IRR.  AT  AT.N.          X                   Y                   Z
     1     1     8    2.767726445526E+00 -7.229384810990E-01  2.421277876308E+00
     1     2     8    1.595183806045E+00  4.013109773002E+00  3.271596551384E+00
     1     3     8   -2.767726445526E+00  7.229384810990E-01 -2.421277876308E+00
     1     4     8   -1.595183806045E+00 -4.013109773002E+00 -3.271596551384E+00
     5     5     8    7.785181173510E-01  4.784287800980E+00 -2.272080481977E+00
     5     6     8    2.096385212535E+00  4.823954687900E-02 -3.460550658461E+00
     5     7     8   -7.785181173510E-01 -4.784287800980E+00  2.272080481977E+00
     5     8     8   -2.096385212535E+00 -4.823954687900E-02  3.460550658461E+00
     9     9     7    2.962855672674E+00 -4.305415048497E+00 -1.826774935671E+00
     9    10     7   -8.795234278800E-02  4.306332056040E-01 -3.905856204766E+00
     9    11     7   -2.962855672674E+00  4.305415048497E+00  1.826774935671E+00
     9    12     7    8.795234278800E-02 -4.306332056040E-01  3.905856204766E+00
    13    13     6    2.867213831922E+00 -3.424068531901E+00 -7.335691809400E-01
    13    14     6    7.689497965000E-03  1.311979722200E+00 -4.999061959498E+00
    13    15     6   -2.867213831922E+00  3.424068531901E+00  7.335691809400E-01
    13    16     6   -7.689497965000E-03 -1.311979722200E+00  4.999061959498E+00
    17    17     6    1.805251745147E+00 -3.406211266118E+00  1.650261140450E-01
    17    18     6    1.069651584739E+00  1.329836987982E+00 -5.897657254482E+00
    17    19     6   -1.805251745147E+00  3.406211266118E+00 -1.650261140450E-01
    17    20     6   -1.069651584739E+00 -1.329836987982E+00  5.897657254482E+00
    21    21     6    1.792179946205E+00 -2.500687414333E+00  1.215730720567E+00
    21    22     6    2.570730305365E+00  2.235360839767E+00  4.477143707124E+00
    21    23     6   -1.792179946205E+00  2.500687414333E+00 -1.215730720567E+00
    21    24     6   -2.570730305365E+00 -2.235360839767E+00 -4.477143707124E+00
    25    25     6    2.839154102443E+00 -1.602303335694E+00  1.401414608193E+00
    25    26     6    1.523756149127E+00  3.133744918406E+00  4.291459819498E+00
    25    27     6   -2.839154102443E+00  1.602303335694E+00 -1.401414608193E+00
    25    28     6   -1.523756149127E+00 -3.133744918406E+00 -4.291459819498E+00
    29    29     6   -3.323263336457E+00 -1.640151705840E+00  5.574038677250E-01
    29    30     6    4.483600065710E-01  3.095896548260E+00  5.175227272713E+00
    29    31     6    3.323263336457E+00  1.640151705840E+00 -5.574038677250E-01
    29    32     6   -4.483600065710E-01 -3.095896548260E+00 -5.175227272713E+00
    33    33     6   -3.316020557981E+00 -2.537856430143E+00 -4.951557207570E-01
    33    34     6   -1.046889693590E+00  2.198191823958E+00 -5.197718706934E+00
    33    35     6    3.316020557981E+00  2.537856430143E+00  4.951557207570E-01
    33    36     6    1.046889693590E+00 -2.198191823958E+00  5.197718706934E+00
    37    37     6    1.968771930895E+00  4.618351639539E+00 -2.541006642752E+00
    37    38     6    9.061313989910E-01 -1.176966145620E-01 -3.191624497686E+00
    37    39     6   -1.968771930895E+00 -4.618351639539E+00  2.541006642752E+00
    37    40     6   -9.061313989910E-01  1.176966145620E-01  3.191624497686E+00
    41    41     6    2.407046800154E+00  3.762652549252E+00 -3.696930409371E+00
    41    42     6    4.678565297320E-01 -9.733957048480E-01 -2.035700731067E+00
    41    43     6   -2.407046800154E+00 -3.762652549252E+00  3.696930409371E+00
    41    44     6   -4.678565297320E-01  9.733957048480E-01  2.035700731067E+00
    45    45     1    9.814846165220E-01 -4.094146883231E+00  6.768343302300E-02
    45    46     1    1.893418713364E+00  6.419013708700E-01 -5.800314573460E+00
    45    47     1   -9.814846165220E-01  4.094146883231E+00 -6.768343302300E-02
    45    48     1   -1.893418713364E+00 -6.419013708700E-01  5.800314573460E+00
    49    49     1    9.542406077720E-01 -2.506050871668E+00  1.901781745533E+00
    49    50     1    3.408669643799E+00  2.229997382432E+00  3.791092682159E+00
    49    51     1   -9.542406077720E-01  2.506050871668E+00 -1.901781745533E+00
    49    52     1   -3.408669643799E+00 -2.229997382432E+00 -3.791092682159E+00
    53    53     1   -2.493950119145E+00 -9.546134528020E-01  6.725507963330E-01
    53    54     1   -3.809532107410E-01  3.781434801299E+00  5.060080344105E+00
    53    55     1    2.493950119145E+00  9.546134528020E-01 -6.725507963330E-01
    53    56     1    3.809532107410E-01 -3.781434801299E+00 -5.060080344105E+00
    57    57     1   -2.470037531185E+00 -2.548498817589E+00 -1.171222329169E+00
    57    58     1   -1.892872720385E+00  2.187549436512E+00 -4.521652098523E+00
    57    59     1    2.470037531185E+00  2.548498817589E+00  1.171222329169E+00
    57    60     1    1.892872720385E+00 -2.187549436512E+00  4.521652098523E+00
    61    61     1   -3.590000103009E+00 -3.542873784270E-01  2.696667558551E+00
    61    62     1    7.150967731230E-01  4.381760875673E+00  3.035963581887E+00
    61    63     1    3.590000103009E+00  3.542873784270E-01 -2.696667558551E+00
    61    64     1   -7.150967731230E-01 -4.381760875673E+00 -3.035963581887E+00
    65    65     1   -3.335207904334E+00 -4.457282039185E+00 -2.132147778762E+00
    65    66     1   -1.027702347237E+00  2.787662149160E-01 -3.560726648930E+00
    65    67     1    3.335207904334E+00  4.457282039185E+00  2.132147778762E+00
    65    68     1    1.027702347237E+00 -2.787662149160E-01  3.560726648930E+00
    69    69     1    1.761825677199E+00  3.930449672051E+00 -4.557903179360E+00
    69    70     1    1.113077652687E+00 -8.055985820500E-01 -1.174727961077E+00
    69    71     1   -1.761825677199E+00 -3.930449672051E+00  4.557903179360E+00
    69    72     1   -1.113077652687E+00  8.055985820500E-01  1.174727961077E+00
    73    73     1    3.442117374609E+00  3.932026330993E+00 -3.987986489417E+00
    73    74     1   -5.672140447230E-01 -8.040219231080E-01 -1.744644651021E+00
    73    75     1   -3.442117374609E+00 -3.932026330993E+00  3.987986489417E+00
    73    76     1    5.672140447230E-01  8.040219231080E-01  1.744644651021E+00
    77    77     1    2.300050064710E+00  2.710370286415E+00 -3.434606231807E+00
    77    78     1    5.748532651760E-01 -2.025677967685E+00 -2.298024908631E+00
    77    79     1   -2.300050064710E+00 -2.710370286415E+00  3.434606231807E+00
    77    80     1   -5.748532651760E-01  2.025677967685E+00  2.298024908631E+00

 SPACE  GROUP  N.                     :   14
 NUMBER OF SYMMETRY OPERATORS         :    4
 *******************************************************************************
 LATTICE PARAMETERS (ANGSTROMS AND DEGREES) - BOHR = 0.5291772083 ANGSTROM
 PRIMITIVE CELL - CENTRING CODE 1/0 VOLUME=   783.861809 - DENSITY  1.280 g/cm^3
         A              B              C           ALPHA      BETA       GAMMA 
     7.23792277     9.47209651    12.82624325    90.000000 116.948393  90.000000
 *******************************************************************************
 ATOMS IN THE ASYMMETRIC UNIT   20 - ATOMS IN THE UNIT CELL:   80
     ATOM                 X/A                 Y/B                 Z/C    
 *******************************************************************************
      1 T   8 O    -4.483151610217E-01 -7.632296403158E-02  2.130968304186E-01
      2 F   8 O     4.483151610203E-01  4.236770359685E-01  2.869031695804E-01
      3 F   8 O     4.483151610217E-01  7.632296403158E-02 -2.130968304186E-01
      4 F   8 O    -4.483151610203E-01 -4.236770359685E-01 -2.869031695804E-01
      5 T   8 O    -5.000443719007E-02 -4.949071943219E-01 -1.983442191123E-01
      6 F   8 O     5.000443719105E-02  5.092805677945E-03 -3.016557808867E-01
      7 F   8 O     5.000443719007E-02  4.949071943219E-01  1.983442191123E-01
      8 F   8 O    -5.000443719105E-02 -5.092805677945E-03  3.016557808867E-01
      9 T   7 N     2.835642648316E-01 -4.545366535032E-01 -1.583480000866E-01
     10 F   7 N    -2.835642648305E-01  4.546334649686E-02 -3.416519999123E-01
     11 F   7 N    -2.835642648316E-01  4.545366535032E-01  1.583480000866E-01
     12 F   7 N     2.835642648305E-01 -4.546334649686E-02  3.416519999123E-01
     13 T   6 C     3.462695167273E-01 -3.614900385503E-01 -6.278117548429E-02
     14 F   6 C    -3.462695167262E-01  1.385099614498E-01 -4.372188245147E-01
     15 F   6 C    -3.462695167273E-01  3.614900385503E-01  6.278117548429E-02
     16 F   6 C     3.462695167262E-01 -1.385099614498E-01  4.372188245147E-01
     17 T   6 C     2.615744723578E-01 -3.596047889893E-01  1.530060550787E-02
     18 F   6 C    -2.615744723568E-01  1.403952110107E-01  4.846993944933E-01
     19 F   6 C    -2.615744723578E-01  3.596047889893E-01 -1.530060550787E-02
     20 F   6 C     2.615744723568E-01 -1.403952110107E-01 -4.846993944933E-01
     21 T   6 C     3.327664039559E-01 -2.640056942165E-01  1.071899088561E-01
     22 F   6 C    -3.327664039575E-01  2.359943057835E-01  3.928100911428E-01
     23 F   6 C    -3.327664039559E-01  2.640056942165E-01 -1.071899088561E-01
     24 F   6 C     3.327664039575E-01 -2.359943057835E-01 -3.928100911428E-01
     25 T   6 C     4.907206713928E-01 -1.691603684894E-01  1.239329737211E-01
     26 F   6 C    -4.907206713943E-01  3.308396315106E-01  3.760670262778E-01
     27 F   6 C    -4.907206713928E-01  1.691603684894E-01 -1.239329737211E-01
     28 F   6 C     4.907206713943E-01 -3.308396315106E-01 -3.760670262778E-01
     29 T   6 C    -4.216928255236E-01 -1.731561438822E-01  4.715450322441E-02
     30 F   6 C     4.216928255227E-01  3.268438561178E-01  4.528454967745E-01
     31 F   6 C     4.216928255236E-01  1.731561438822E-01 -4.715450322441E-02
     32 F   6 C    -4.216928255227E-01 -3.268438561178E-01 -4.528454967745E-01
     33 T   6 C    -4.938212224490E-01 -2.679297479651E-01 -4.489983889017E-02
     34 F   6 C     4.938212224504E-01  2.320702520350E-01 -4.551001611087E-01
     35 F   6 C     4.938212224490E-01  2.679297479651E-01  4.489983889017E-02
     36 F   6 C    -4.938212224504E-01 -2.320702520350E-01  4.551001611087E-01
     37 T   6 C     9.621418963576E-02  4.875743860444E-01 -2.212929299558E-01
     38 F   6 C    -9.621418963479E-02 -1.242561395570E-02 -2.787070700431E-01
     39 F   6 C    -9.621418963576E-02 -4.875743860444E-01  2.212929299558E-01
     40 F   6 C     9.621418963479E-02  1.242561395570E-02  2.787070700431E-01
     41 T   6 C     7.662135505896E-02  3.972354532067E-01 -3.221805228408E-01
     42 F   6 C    -7.662135505798E-02 -1.027645467933E-01 -1.778194771581E-01
     43 F   6 C    -7.662135505896E-02 -3.972354532067E-01  3.221805228408E-01
     44 F   6 C     7.662135505798E-02  1.027645467933E-01  1.778194771581E-01
     45 T   1 H     1.406823521024E-01 -4.322323869575E-01  6.391175281362E-03
     46 F   1 H    -1.406823521014E-01  6.776761304261E-02  4.936088247198E-01
     47 F   1 H    -1.406823521024E-01  4.322323869575E-01 -6.391175281362E-03
     48 F   1 H     1.406823521014E-01 -6.776761304261E-02 -4.936088247198E-01
     49 T   1 H     2.643409958491E-01 -2.645719318314E-01  1.667899981458E-01
     50 F   1 H    -2.643409958505E-01  2.354280681686E-01  3.332100018532E-01
     51 F   1 H    -2.643409958491E-01  2.645719318314E-01 -1.667899981458E-01
     52 F   1 H     2.643409958505E-01 -2.354280681686E-01 -3.332100018532E-01
     53 T   1 H    -2.987952836215E-01 -1.007816434277E-01  5.762377361159E-02
     54 F   1 H     2.987952836205E-01  3.992183565724E-01  4.423762263874E-01
     55 F   1 H     2.987952836215E-01  1.007816434277E-01 -5.762377361159E-02
     56 F   1 H    -2.987952836205E-01 -3.992183565724E-01 -4.423762263874E-01
     57 T   1 H    -4.235876848618E-01 -2.690532993813E-01 -1.036228176880E-01
     58 F   1 H     4.235876848633E-01  2.309467006188E-01 -3.963771823110E-01
     59 F   1 H     4.235876848618E-01  2.690532993813E-01  1.036228176880E-01
     60 F   1 H    -4.235876848633E-01 -2.309467006188E-01  3.963771823110E-01
     61 T   1 H    -3.100117940382E-01 -3.740326950008E-02  2.341283123701E-01
     62 F   1 H     3.100117940373E-01  4.625967304999E-01  2.658716876289E-01
     63 F   1 H     3.100117940382E-01  3.740326950008E-02 -2.341283123701E-01
     64 F   1 H    -3.100117940373E-01 -4.625967304999E-01 -2.658716876289E-01
     65 T   1 H     3.897822493212E-01 -4.705697450745E-01 -1.880818752992E-01
     66 F   1 H    -3.897822493198E-01  2.943025492558E-02 -3.119181246998E-01
     67 F   1 H    -3.897822493212E-01  4.705697450745E-01  1.880818752992E-01
     68 F   1 H     3.897822493198E-01 -2.943025492558E-02  3.119181246998E-01
     69 T   1 H    -7.259114686557E-02  4.149503405765E-01 -3.977919608810E-01
     70 F   1 H     7.259114686661E-02 -8.504965942361E-02 -1.022080391179E-01
     71 F   1 H     7.259114686557E-02 -4.149503405765E-01  3.977919608810E-01
     72 F   1 H    -7.259114686661E-02  8.504965942361E-02  1.022080391179E-01
     73 T   1 H     1.998025456535E-01  4.151167935830E-01 -3.471392890535E-01
     74 F   1 H    -1.998025456526E-01 -8.488320641708E-02 -1.528607109455E-01
     75 F   1 H    -1.998025456535E-01 -4.151167935830E-01  3.471392890535E-01
     76 F   1 H     1.998025456526E-01  8.488320641708E-02  1.528607109455E-01
     77 T   1 H     8.002378658007E-02  2.861425962107E-01 -2.992888139007E-01
     78 F   1 H    -8.002378657909E-02 -2.138574037893E-01 -2.007111860982E-01
     79 F   1 H    -8.002378658007E-02 -2.861425962107E-01  2.992888139007E-01
     80 F   1 H     8.002378657909E-02  2.138574037893E-01  2.007111860982E-01

 T = ATOM BELONGING TO THE ASYMMETRIC UNIT
 *******************************************************************************
 * GEOMETRY EDITING - INPUT COORDINATES ARE GIVEN IN ANGSTROM         
 *******************************************************************************

 GEOMETRY NOW FULLY CONSISTENT WITH THE GROUP

 FRQFRQFRQFRQFRQFRQFRQFRQFRQFRQFRQFRQFRQFRQFRQFRQFRQFRQFRQFRQFRQFRQFRQFRQFRQFRQ

                       FREQUENCY CALCULATION

 INFORMATION **** INPFREQ ****  PRINTING OF EIGENVECTORS
 INFORMATION **** INPFREQ **** NEW DEFAULT - IMPOSING ECKART CONDITIONS TO THE HESSIAN

 GCALCO - MAX INDICES DIRECT LATTICE VECTOR    20    14    11
 NO.OF VECTORS CREATED 6999 STARS 1868 RMAX   206.85809 BOHR

 GEOMETRY FOR WAVE FUNCTION - DIMENSIONALITY OF THE SYSTEM    3
 (NON PERIODIC DIRECTION: LATTICE PARAMETER FORMALLY SET TO 500)
 *******************************************************************************
 LATTICE PARAMETERS (ANGSTROMS AND DEGREES) - BOHR = 0.5291772083 ANGSTROM
 PRIMITIVE CELL - CENTRING CODE 1/0 VOLUME=   783.861809 - DENSITY  1.280 g/cm^3
         A              B              C           ALPHA      BETA       GAMMA 
     7.23792277     9.47209651    12.82624325    90.000000 116.948393  90.000000
 *******************************************************************************
 ATOMS IN THE ASYMMETRIC UNIT   20 - ATOMS IN THE UNIT CELL:   80
     ATOM                 X/A                 Y/B                 Z/C    
 *******************************************************************************
      1 T   8 O    -4.483151610217E-01 -7.632296403158E-02  2.130968304186E-01
      2 F   8 O     4.483151610203E-01  4.236770359684E-01  2.869031695805E-01
      3 F   8 O     4.483151610217E-01  7.632296403158E-02 -2.130968304186E-01
      4 F   8 O    -4.483151610231E-01 -4.236770359684E-01 -2.869031695823E-01
      5 T   8 O    -5.000443719007E-02 -4.949071943219E-01 -1.983442191123E-01
      6 F   8 O     5.000443718869E-02  5.092805678050E-03 -3.016557808886E-01
      7 F   8 O     5.000443719007E-02  4.949071943219E-01  1.983442191123E-01
      8 F   8 O    -5.000443719146E-02 -5.092805678050E-03  3.016557808869E-01
      9 T   7 N     2.835642648316E-01 -4.545366535032E-01 -1.583480000866E-01
     10 F   7 N    -2.835642648330E-01  4.546334649675E-02 -3.416519999143E-01
     11 F   7 N    -2.835642648316E-01  4.545366535032E-01  1.583480000866E-01
     12 F   7 N     2.835642648302E-01 -4.546334649676E-02  3.416519999125E-01
     13 T   6 C     3.462695167273E-01 -3.614900385503E-01 -6.278117548429E-02
     14 F   6 C    -3.462695167287E-01  1.385099614497E-01 -4.372188245166E-01
     15 F   6 C    -3.462695167273E-01  3.614900385503E-01  6.278117548429E-02
     16 F   6 C     3.462695167259E-01 -1.385099614497E-01  4.372188245148E-01
     17 T   6 C     2.615744723578E-01 -3.596047889893E-01  1.530060550787E-02
     18 F   6 C    -2.615744723592E-01  1.403952110107E-01  4.846993944913E-01
     19 F   6 C    -2.615744723578E-01  3.596047889893E-01 -1.530060550787E-02
     20 F   6 C     2.615744723564E-01 -1.403952110107E-01 -4.846993944930E-01
     21 T   6 C     3.327664039559E-01 -2.640056942165E-01  1.071899088561E-01
     22 F   6 C    -3.327664039573E-01  2.359943057835E-01  3.928100911430E-01
     23 F   6 C    -3.327664039559E-01  2.640056942165E-01 -1.071899088561E-01
     24 F   6 C     3.327664039545E-01 -2.359943057835E-01 -3.928100911448E-01
     25 T   6 C     4.907206713928E-01 -1.691603684894E-01  1.239329737211E-01
     26 F   6 C    -4.907206713941E-01  3.308396315106E-01  3.760670262780E-01
     27 F   6 C    -4.907206713928E-01  1.691603684894E-01 -1.239329737211E-01
     28 F   6 C     4.907206713914E-01 -3.308396315106E-01 -3.760670262798E-01
     29 T   6 C    -4.216928255236E-01 -1.731561438822E-01  4.715450322441E-02
     30 F   6 C     4.216928255222E-01  3.268438561178E-01  4.528454967747E-01
     31 F   6 C     4.216928255236E-01  1.731561438822E-01 -4.715450322441E-02
     32 F   6 C    -4.216928255250E-01 -3.268438561178E-01 -4.528454967765E-01
     33 T   6 C    -4.938212224490E-01 -2.679297479651E-01 -4.489983889017E-02
     34 F   6 C     4.938212224476E-01  2.320702520349E-01 -4.551001611107E-01
     35 F   6 C     4.938212224490E-01  2.679297479651E-01  4.489983889017E-02
     36 F   6 C    -4.938212224504E-01 -2.320702520349E-01  4.551001611090E-01
     37 T   6 C     9.621418963576E-02  4.875743860444E-01 -2.212929299558E-01
     38 F   6 C    -9.621418963715E-02 -1.242561395559E-02 -2.787070700450E-01
     39 F   6 C    -9.621418963576E-02 -4.875743860444E-01  2.212929299558E-01
     40 F   6 C     9.621418963438E-02  1.242561395559E-02  2.787070700433E-01
     41 T   6 C     7.662135505896E-02  3.972354532067E-01 -3.221805228408E-01
     42 F   6 C    -7.662135506034E-02 -1.027645467933E-01 -1.778194771600E-01
     43 F   6 C    -7.662135505896E-02 -3.972354532067E-01  3.221805228408E-01
     44 F   6 C     7.662135505757E-02  1.027645467933E-01  1.778194771583E-01
     45 T   1 H     1.406823521024E-01 -4.322323869575E-01  6.391175281362E-03
     46 F   1 H    -1.406823521038E-01  6.776761304251E-02  4.936088247178E-01
     47 F   1 H    -1.406823521024E-01  4.322323869575E-01 -6.391175281362E-03
     48 F   1 H     1.406823521010E-01 -6.776761304251E-02 -4.936088247195E-01
     49 T   1 H     2.643409958491E-01 -2.645719318314E-01  1.667899981458E-01
     50 F   1 H    -2.643409958505E-01  2.354280681686E-01  3.332100018534E-01
     51 F   1 H    -2.643409958491E-01  2.645719318314E-01 -1.667899981458E-01
     52 F   1 H     2.643409958478E-01 -2.354280681686E-01 -3.332100018551E-01
     53 T   1 H    -2.987952836215E-01 -1.007816434277E-01  5.762377361159E-02
     54 F   1 H     2.987952836201E-01  3.992183565723E-01  4.423762263875E-01
     55 F   1 H     2.987952836215E-01  1.007816434277E-01 -5.762377361159E-02
     56 F   1 H    -2.987952836229E-01 -3.992183565723E-01 -4.423762263893E-01
     57 T   1 H    -4.235876848618E-01 -2.690532993813E-01 -1.036228176880E-01
     58 F   1 H     4.235876848604E-01  2.309467006187E-01 -3.963771823129E-01
     59 F   1 H     4.235876848618E-01  2.690532993813E-01  1.036228176880E-01
     60 F   1 H    -4.235876848632E-01 -2.309467006187E-01  3.963771823111E-01
     61 T   1 H    -3.100117940382E-01 -3.740326950008E-02  2.341283123701E-01
     62 F   1 H     3.100117940369E-01  4.625967304999E-01  2.658716876290E-01
     63 F   1 H     3.100117940382E-01  3.740326950008E-02 -2.341283123701E-01
     64 F   1 H    -3.100117940396E-01 -4.625967304999E-01 -2.658716876308E-01
     65 T   1 H     3.897822493212E-01 -4.705697450745E-01 -1.880818752992E-01
     66 F   1 H    -3.897822493226E-01  2.943025492547E-02 -3.119181247017E-01
     67 F   1 H    -3.897822493212E-01  4.705697450745E-01  1.880818752992E-01
     68 F   1 H     3.897822493198E-01 -2.943025492547E-02  3.119181247000E-01
     69 T   1 H    -7.259114686557E-02  4.149503405765E-01 -3.977919608810E-01
     70 F   1 H     7.259114686418E-02 -8.504965942351E-02 -1.022080391199E-01
     71 F   1 H     7.259114686557E-02 -4.149503405765E-01  3.977919608810E-01
     72 F   1 H    -7.259114686696E-02  8.504965942351E-02  1.022080391182E-01
     73 T   1 H     1.998025456535E-01  4.151167935830E-01 -3.471392890535E-01
     74 F   1 H    -1.998025456549E-01 -8.488320641697E-02 -1.528607109474E-01
     75 F   1 H    -1.998025456535E-01 -4.151167935830E-01  3.471392890535E-01
     76 F   1 H     1.998025456521E-01  8.488320641697E-02  1.528607109456E-01
     77 T   1 H     8.002378658007E-02  2.861425962107E-01 -2.992888139007E-01
     78 F   1 H    -8.002378658145E-02 -2.138574037893E-01 -2.007111861002E-01
     79 F   1 H    -8.002378658007E-02 -2.861425962107E-01  2.992888139007E-01
     80 F   1 H     8.002378657868E-02  2.138574037893E-01  2.007111860984E-01

 T = ATOM BELONGING TO THE ASYMMETRIC UNIT

 ****    4 SYMMOPS - TRANSLATORS IN FRACTIONAL UNITS
 **** MATRICES AND TRANSLATORS IN THE CRYSTALLOGRAPHIC REFERENCE FRAME
   V INV                    ROTATION MATRICES                   TRANSLATORS
   1   1  1.00  0.00  0.00  0.00  1.00  0.00  0.00  0.00  1.00  0.00  0.00  0.00
   2   2 -1.00  0.00 -0.00  0.00  1.00  0.00  0.00  0.00 -1.00 -0.00  0.50  0.50
   3   3 -1.00 -0.00 -0.00 -0.00 -1.00  0.00  0.00  0.00 -1.00  0.00  0.00  0.00
   4   4  1.00 -0.00  0.00 -0.00 -1.00 -0.00 -0.00 -0.00  1.00 -0.00  0.50  0.50

 DIRECT LATTICE VECTORS CARTESIAN COMPONENTS (ANGSTROM)
          X                    Y                    Z
   0.723781358146E+01   0.445344923987E-15  -0.397567127464E-01
  -0.327186664395E-17   0.947209650820E+01  -0.316350299899E-17
  -0.574980665977E+01   0.790346551777E-15   0.114652622809E+02


 CARTESIAN COORDINATES - PRIMITIVE CELL
 *******************************************************************************
 *      ATOM          X(ANGSTROM)         Y(ANGSTROM)         Z(ANGSTROM)
 *******************************************************************************
    1     8 O     2.767726445526E+00 -7.229384810990E-01  2.421277876308E+00
    2     8 O     1.595183806044E+00  4.013109773001E+00  3.271596551386E+00
    3     8 O    -2.767726445526E+00  7.229384810990E-01 -2.421277876308E+00
    4     8 O    -1.595183806054E+00 -4.013109773001E+00 -3.271596551406E+00
    5     8 O     7.785181173510E-01  4.784287800980E+00 -2.272080481977E+00
    6     8 O     2.096385212529E+00  4.823954688000E-02 -3.460550658483E+00
    7     8 O    -7.785181173510E-01 -4.784287800980E+00  2.272080481977E+00
    8     8 O    -2.096385212539E+00 -4.823954688000E-02  3.460550658463E+00
    9     7 N     2.962855672674E+00 -4.305415048497E+00 -1.826774935671E+00
   10     7 N    -8.795234279400E-02  4.306332056030E-01 -3.905856204789E+00
   11     7 N    -2.962855672674E+00  4.305415048497E+00  1.826774935671E+00
   12     7 N     8.795234278400E-02 -4.306332056030E-01  3.905856204769E+00
   13     6 C     2.867213831922E+00 -3.424068531901E+00 -7.335691809400E-01
   14     6 C     7.689497958001E-03  1.311979722199E+00 -4.999061959520E+00
   15     6 C    -2.867213831922E+00  3.424068531901E+00  7.335691809400E-01
   16     6 C    -7.689497968000E-03 -1.311979722199E+00  4.999061959500E+00
   17     6 C     1.805251745147E+00 -3.406211266118E+00  1.650261140450E-01
   18     6 C     1.069651584733E+00  1.329836987982E+00 -5.897657254505E+00
   19     6 C    -1.805251745147E+00  3.406211266118E+00 -1.650261140450E-01
   20     6 C    -1.069651584743E+00 -1.329836987982E+00  5.897657254485E+00
   21     6 C     1.792179946205E+00 -2.500687414333E+00  1.215730720567E+00
   22     6 C     2.570730305365E+00  2.235360839767E+00  4.477143707127E+00
   23     6 C    -1.792179946205E+00  2.500687414333E+00 -1.215730720567E+00
   24     6 C    -2.570730305375E+00 -2.235360839767E+00 -4.477143707147E+00
   25     6 C     2.839154102443E+00 -1.602303335694E+00  1.401414608193E+00
   26     6 C     1.523756149127E+00  3.133744918406E+00  4.291459819501E+00
   27     6 C    -2.839154102443E+00  1.602303335694E+00 -1.401414608193E+00
   28     6 C    -1.523756149137E+00 -3.133744918406E+00 -4.291459819521E+00
   29     6 C    -3.323263336457E+00 -1.640151705840E+00  5.574038677250E-01
   30     6 C     4.483600065670E-01  3.095896548260E+00  5.175227272715E+00
   31     6 C     3.323263336457E+00  1.640151705840E+00 -5.574038677250E-01
   32     6 C    -4.483600065770E-01 -3.095896548260E+00 -5.175227272735E+00
   33     6 C    -3.316020557981E+00 -2.537856430143E+00 -4.951557207570E-01
   34     6 C    -1.046889693599E+00  2.198191823957E+00 -5.197718706957E+00
   35     6 C     3.316020557981E+00  2.537856430143E+00  4.951557207570E-01
   36     6 C     1.046889693589E+00 -2.198191823957E+00  5.197718706937E+00
   37     6 C     1.968771930895E+00  4.618351639539E+00 -2.541006642752E+00
   38     6 C     9.061313989850E-01 -1.176966145610E-01 -3.191624497708E+00
   39     6 C    -1.968771930895E+00 -4.618351639539E+00  2.541006642752E+00
   40     6 C    -9.061313989950E-01  1.176966145610E-01  3.191624497688E+00
   41     6 C     2.407046800154E+00  3.762652549252E+00 -3.696930409371E+00
   42     6 C     4.678565297260E-01 -9.733957048480E-01 -2.035700731089E+00
   43     6 C    -2.407046800154E+00 -3.762652549252E+00  3.696930409371E+00
   44     6 C    -4.678565297360E-01  9.733957048480E-01  2.035700731069E+00
   45     1 H     9.814846165220E-01 -4.094146883231E+00  6.768343302300E-02
   46     1 H     1.893418713358E+00  6.419013708690E-01 -5.800314573483E+00
   47     1 H    -9.814846165220E-01  4.094146883231E+00 -6.768343302300E-02
   48     1 H    -1.893418713368E+00 -6.419013708690E-01  5.800314573463E+00
   49     1 H     9.542406077720E-01 -2.506050871668E+00  1.901781745533E+00
   50     1 H     3.408669643798E+00  2.229997382432E+00  3.791092682161E+00
   51     1 H    -9.542406077720E-01  2.506050871668E+00 -1.901781745533E+00
   52     1 H    -3.408669643808E+00 -2.229997382432E+00 -3.791092682181E+00
   53     1 H    -2.493950119145E+00 -9.546134528020E-01  6.725507963330E-01
   54     1 H    -3.809532107450E-01  3.781434801298E+00  5.060080344107E+00
   55     1 H     2.493950119145E+00  9.546134528020E-01 -6.725507963330E-01
   56     1 H     3.809532107350E-01 -3.781434801298E+00 -5.060080344127E+00
   57     1 H    -2.470037531185E+00 -2.548498817589E+00 -1.171222329169E+00
   58     1 H    -1.892872720395E+00  2.187549436511E+00 -4.521652098545E+00
   59     1 H     2.470037531185E+00  2.548498817589E+00  1.171222329169E+00
   60     1 H     1.892872720385E+00 -2.187549436511E+00  4.521652098525E+00
   61     1 H    -3.590000103009E+00 -3.542873784270E-01  2.696667558551E+00
   62     1 H     7.150967731190E-01  4.381760875673E+00  3.035963581889E+00
   63     1 H     3.590000103009E+00  3.542873784270E-01 -2.696667558551E+00
   64     1 H    -7.150967731290E-01 -4.381760875673E+00 -3.035963581909E+00
   65     1 H    -3.335207904334E+00 -4.457282039185E+00 -2.132147778762E+00
   66     1 H    -1.027702347246E+00  2.787662149150E-01 -3.560726648952E+00
   67     1 H     3.335207904334E+00  4.457282039185E+00  2.132147778762E+00
   68     1 H     1.027702347236E+00 -2.787662149150E-01  3.560726648932E+00
   69     1 H     1.761825677199E+00  3.930449672051E+00 -4.557903179360E+00
   70     1 H     1.113077652681E+00 -8.055985820490E-01 -1.174727961100E+00
   71     1 H    -1.761825677199E+00 -3.930449672051E+00  4.557903179360E+00
   72     1 H    -1.113077652691E+00  8.055985820490E-01  1.174727961080E+00
   73     1 H     3.442117374609E+00  3.932026330993E+00 -3.987986489417E+00
   74     1 H    -5.672140447290E-01 -8.040219231070E-01 -1.744644651043E+00
   75     1 H    -3.442117374609E+00 -3.932026330993E+00  3.987986489417E+00
   76     1 H     5.672140447190E-01  8.040219231070E-01  1.744644651023E+00
   77     1 H     2.300050064710E+00  2.710370286415E+00 -3.434606231807E+00
   78     1 H     5.748532651700E-01 -2.025677967685E+00 -2.298024908653E+00
   79     1 H    -2.300050064710E+00 -2.710370286415E+00  3.434606231807E+00
   80     1 H    -5.748532651800E-01  2.025677967685E+00  2.298024908633E+00

 *******************************************************************************
 STARTING BASIS SET HANDLING 
 *******************************************************************************

 Loading internal basis set: DEF2-MSVP           

 Please cite in your publication:
 Fully Optimized Contracted Gaussian Basis Sets for Atoms Li to Kr. A. Schäfer, H. Horn and R. Ahlrichs; J. Chem. Phys. 97, 2571 (1992).                                                                                                                         
 S. Grimme, J. G. Brandenburg, C. Bannwarth, and A. Hansen, J. Chem. Phys., 143, 054107 (2015).                                                                                                                                                                  

 *******************************************************************************
 LOCAL ATOMIC FUNCTIONS BASIS SET
 *******************************************************************************
   ATOM   X(AU)   Y(AU)   Z(AU)  N. TYPE  EXPONENT  S COEF   P COEF   D/F/G COEF
 *******************************************************************************
   1 O    5.230  -1.366   4.576
                                  1 S  
                                         6.773E+03 1.727E-03 0.000E+00 0.000E+00
                                         1.017E+03 1.325E-02 0.000E+00 0.000E+00
                                         2.313E+02 6.603E-02 0.000E+00 0.000E+00
                                         6.501E+01 2.353E-01 0.000E+00 0.000E+00
                                         2.050E+01 5.498E-01 0.000E+00 0.000E+00
                                  2 S  
                                         6.716E+00 1.000E+00 0.000E+00 0.000E+00
                                  3 S  
                                         1.147E+00 1.000E+00 0.000E+00 0.000E+00
                                  4 S  
                                         3.342E-01 1.000E+00 0.000E+00 0.000E+00
                           5-     7 P  
                                         1.769E+01 0.000E+00 4.359E-02 0.000E+00
                                         3.854E+00 0.000E+00 2.318E-01 0.000E+00
                                         1.047E+00 0.000E+00 5.146E-01 0.000E+00
                           8-    10 P  
                                         2.759E-01 0.000E+00 1.000E+00 0.000E+00
                          11-    15 D  
                                         8.000E-01 0.000E+00 0.000E+00 1.000E+00
   2 O    3.014   7.584   6.182
   3 O   -5.230   1.366  -4.576
   4 O   -3.014  -7.584  -6.182
   5 O    1.471   9.041  -4.294
   6 O    3.962   0.091  -6.539
   7 O   -1.471  -9.041   4.294
   8 O   -3.962  -0.091   6.539
   9 N    5.599  -8.136  -3.452
                                121 S  
                                         5.072E+03 1.707E-03 0.000E+00 0.000E+00
                                         7.614E+02 1.309E-02 0.000E+00 0.000E+00
                                         1.732E+02 6.510E-02 0.000E+00 0.000E+00
                                         4.867E+01 2.305E-01 0.000E+00 0.000E+00
                                         1.533E+01 5.330E-01 0.000E+00 0.000E+00
                                122 S  
                                         5.019E+00 1.000E+00 0.000E+00 0.000E+00
                                123 S  
                                         8.355E-01 1.000E+00 0.000E+00 0.000E+00
                                124 S  
                                         2.463E-01 1.000E+00 0.000E+00 0.000E+00
                         125-   127 P  
                                         1.355E+01 0.000E+00 4.063E-02 0.000E+00
                                         2.918E+00 0.000E+00 2.209E-01 0.000E+00
                                         7.983E-01 0.000E+00 5.186E-01 0.000E+00
                         128-   130 P  
                                         2.190E-01 0.000E+00 1.000E+00 0.000E+00
                         131-   135 D  
                                         8.000E-01 0.000E+00 0.000E+00 1.000E+00
  10 N   -0.166   0.814  -7.381
  11 N   -5.599   8.136   3.452
  12 N    0.166  -0.814   7.381
  13 C    5.418  -6.471  -1.386
                                181 S  
                                         3.624E+03 1.634E-03 0.000E+00 0.000E+00
                                         5.440E+02 1.252E-02 0.000E+00 0.000E+00
                                         1.237E+02 6.211E-02 0.000E+00 0.000E+00
                                         3.476E+01 2.182E-01 0.000E+00 0.000E+00
                                         1.093E+01 4.980E-01 0.000E+00 0.000E+00
                                182 S  
                                         3.574E+00 1.000E+00 0.000E+00 0.000E+00
                                183 S  
                                         5.748E-01 1.000E+00 0.000E+00 0.000E+00
                                184 S  
                                         1.730E-01 1.000E+00 0.000E+00 0.000E+00
                         185-   187 P  
                                         9.443E+00 0.000E+00 3.790E-02 0.000E+00
                                         2.002E+00 0.000E+00 2.082E-01 0.000E+00
                                         5.463E-01 0.000E+00 5.047E-01 0.000E+00
                         188-   190 P  
                                         1.520E-01 0.000E+00 1.000E+00 0.000E+00
                         191-   195 D  
                                         8.000E-01 0.000E+00 0.000E+00 1.000E+00
  14 C    0.015   2.479  -9.447
  15 C   -5.418   6.471   1.386
  16 C   -0.015  -2.479   9.447
  17 C    3.411  -6.437   0.312
  18 C    2.021   2.513 -11.145
  19 C   -3.411   6.437  -0.312
  20 C   -2.021  -2.513  11.145
  21 C    3.387  -4.726   2.297
  22 C    4.858   4.224   8.461
  23 C   -3.387   4.726  -2.297
  24 C   -4.858  -4.224  -8.461
  25 C    5.365  -3.028   2.648
  26 C    2.879   5.922   8.110
  27 C   -5.365   3.028  -2.648
  28 C   -2.879  -5.922  -8.110
  29 C   -6.280  -3.099   1.053
  30 C    0.847   5.850   9.780
  31 C    6.280   3.099  -1.053
  32 C   -0.847  -5.850  -9.780
  33 C   -6.266  -4.796  -0.936
  34 C   -1.978   4.154  -9.822
  35 C    6.266   4.796   0.936
  36 C    1.978  -4.154   9.822
  37 C    3.720   8.727  -4.802
  38 C    1.712  -0.222  -6.031
  39 C   -3.720  -8.727   4.802
  40 C   -1.712   0.222   6.031
  41 C    4.549   7.110  -6.986
  42 C    0.884  -1.839  -3.847
  43 C   -4.549  -7.110   6.986
  44 C   -0.884   1.839   3.847
  45 H    1.855  -7.737   0.128
                                661 S  
                                         1.874E+01 1.968E-02 0.000E+00 0.000E+00
                                         2.826E+00 1.380E-01 0.000E+00 0.000E+00
                                         6.401E-01 4.783E-01 0.000E+00 0.000E+00
                                662 S  
                                         1.756E-01 1.000E+00 0.000E+00 0.000E+00
  46 H    3.578   1.213 -10.961
  47 H   -1.855   7.737  -0.128
  48 H   -3.578  -1.213  10.961
  49 H    1.803  -4.736   3.594
  50 H    6.441   4.214   7.164
  51 H   -1.803   4.736  -3.594
  52 H   -6.441  -4.214  -7.164
  53 H   -4.713  -1.804   1.271
  54 H   -0.720   7.146   9.562
  55 H    4.713   1.804  -1.271
  56 H    0.720  -7.146  -9.562
  57 H   -4.668  -4.816  -2.213
  58 H   -3.577   4.134  -8.545
  59 H    4.668   4.816   2.213
  60 H    3.577  -4.134   8.545
  61 H   -6.784  -0.670   5.096
  62 H    1.351   8.280   5.737
  63 H    6.784   0.670  -5.096
  64 H   -1.351  -8.280  -5.737
  65 H   -6.303  -8.423  -4.029
  66 H   -1.942   0.527  -6.729
  67 H    6.303   8.423   4.029
  68 H    1.942  -0.527   6.729
  69 H    3.329   7.427  -8.613
  70 H    2.103  -1.522  -2.220
  71 H   -3.329  -7.427   8.613
  72 H   -2.103   1.522   2.220
  73 H    6.505   7.430  -7.536
  74 H   -1.072  -1.519  -3.297
  75 H   -6.505  -7.430   7.536
  76 H    1.072   1.519   3.297
  77 H    4.346   5.122  -6.490
  78 H    1.086  -3.828  -4.343
  79 H   -4.346  -5.122   6.490
  80 H   -1.086   3.828   4.343

 *******************************************************************************
 FINISHED BASIS SET HANDLING 
 *******************************************************************************

 INFORMATION **** SET_MPP **** PCRYSTAL CALCULATION
 INFORMATION **** READM2 **** NEW DEFAULT: FOCK/KS MATRIX MIXING SET TO 30 %
 INFORMATION **** READM2 **** NEW DEFAULT: FULL DIRECT SCF MODE
 INFORMATION **** READM2 **** NEW DEFAULT: COULOMB BIPOLAR BUFFER SET TO 32 Mb
 INFORMATION **** READM2 **** NEW DEFAULT: EXCHANGE BIPOLAR BUFFER SET TO 32 Mb

 *******************************************************************************
 NEW DEFAULT: DFT INTEGRATION GRID INCREASED TO XLGRID
 NEW DEFAULT: DIIS ACCELERATOR ACTIVE
 USE KEYWORD NODIIS TO TURN IT OFF
 *******************************************************************************

 INFORMATION **** RDDFTP **** PBEh-3c calculation
 INFORMATION **** RDDFTP **** PBEh hybrid functional combined with D3 and gCP

PLEASE CITE:
(1) PBEh-3c Reference
 S. Grimme, J. G. Brandenburg, C. Bannwarth, and A. Hansen, 
 J. Chem. Phys. 143, 054107 (2015)
(2) DFT-D3 Reference
 S. Grimme, J. Antony, S. Ehrlich, and H. Krieg, J. Chem. Phys. 132, 154104 (2010)
(3) gCP Reference
 H. Kruse and S. Grimme J. Chem. Phys, 136, 154101 (2012)
 J. G. Brandenburg, M. Alessio, B. Civalleri, M. F. Peintinger
 T. Bredow, and S. Grimme, J. Phys. Chem. A, 117, 9282 (2013) 

 WARNING **** RDDFTP **** PBEh-3c has to be combined with def2-mSVP basis set
 WARNING **** RDDFTP **** Note: Harmonic frequencies are scaled by 0.95
 WARNING **** RDDFTP **** as recommended in original publication
 INFORMATION **** TOLDEE **** SCF TOL ON TOTAL ENERGY SET TO           9
 INFORMATION **** TOLINTEG **** COULOMB AND EXCHANGE SERIES TOLERANCES MODIFIED
 INFORMATION **** MAXCYCLE **** MAX NUMBER OF SCF CYCLES SET TO          30
 WARNING **** READM2 **** PROBABLE LOSS IN FREQCALC ACCURACY; SCF TOL LT          10
 *******************************************************************************
 N. OF ATOMS PER CELL        80  COULOMB OVERLAP TOL         (T1) 10**   -8
 NUMBER OF SHELLS           380  COULOMB PENETRATION TOL     (T2) 10**   -8
 NUMBER OF AO               732  EXCHANGE OVERLAP TOL        (T3) 10**   -8
 N. OF ELECTRONS PER CELL   320  EXCHANGE PSEUDO OVP (F(G))  (T4) 10**   -8
 CORE ELECTRONS PER CELL     88  EXCHANGE PSEUDO OVP (P(G))  (T5) 10**  -24
 N. OF SYMMETRY OPERATORS     4  POLE ORDER IN MONO ZONE                  4
 *******************************************************************************
 TYPE OF CALCULATION :  RESTRICTED CLOSED SHELL
 KOHN-SHAM HAMILTONIAN

 (EXCHANGE)[CORRELATION] FUNCTIONAL:(PBEh-3c)[PBEh-3c]


 HYBRID EXCHANGE - PERCENTAGE OF FOCK EXCHANGE    42.0000

 CAPPA:IS1  4;IS2  4;IS3  2; K PTS MONK NET  18; SYMMOPS:K SPACE   4;G SPACE   4

 *******************************************************************************
 MAX NUMBER OF SCF CYCLES      30  CONVERGENCE ON DELTAP        10**-19
 WEIGHT OF F(I) IN F(I+1)      50% CONVERGENCE ON ENERGY        10**- 9
 SHRINK. FACT.(MONKH.)    4  4  2  NUMBER OF K POINTS IN THE IBZ     18
 SHRINKING FACTOR(GILAT NET)    4  NUMBER OF K POINTS(GILAT NET)     18
 *******************************************************************************
 *** K POINTS COORDINATES (OBLIQUE COORDINATES IN UNITS OF IS =  4)
   1-R(  0  0  0)   2-C(  1  0  0)   3-R(  2  0  0)   4-C(  0  1  0)
   5-C(  1  1  0)   6-C(  2  1  0)   7-R(  0  2  0)   8-C(  1  2  0)
   9-R(  2  2  0)  10-R(  0  0  1)  11-C(  1  0  1)  12-R(  2  0  1)
  13-C(  0  1  1)  14-C(  1  1  1)  15-C(  2  1  1)  16-R(  0  2  1)
  17-C(  1  2  1)  18-R(  2  2  1)

 DIRECT LATTICE VECTORS COMPON. (A.U.)     RECIP. LATTICE VECTORS COMPON. (A.U.) 
        X            Y            Z              X            Y            Z
   13.6774855    0.0000000   -0.0751293      0.4606506    0.0000000    0.2310154
   -0.0000000   17.8996683   -0.0000000     -0.0000000    0.3510224   -0.0000000
  -10.8655599    0.0000000   21.6662058      0.0015973    0.0000000    0.2908004

 DISK SPACE FOR EIGENVECTORS (FTN 10)    15003072 REALS

 SYMMETRY ADAPTION OF THE BLOCH FUNCTIONS ENABLED
 TTTTTTTTTTTTTTTTTTTTTTTTTTTTTT gordsh1     TELAPSE        3.83 TCPU        1.93

 MATRIX SIZE: P(G) 2182976, F(G)  203940, P(G) IRR  276885, F(G) IRR   51758
 MAX G-VECTOR INDEX FOR 1- AND 2-ELECTRON INTEGRALS  97

 TTTTTTTTTTTTTTTTTTTTTTTTTTTTTT INPUT       TELAPSE        3.89 TCPU        1.99

 NEIGHBORS OF THE NON-EQUIVALENT ATOMS

 N = NUMBER OF NEIGHBORS AT DISTANCE R
    ATOM  N     R/ANG      R/AU   NEIGHBORS (ATOM LABELS AND CELL INDICES)
   1 O    1     0.9828     1.8573   61 H    1 0 0
   1 O    1     1.3485     2.5483   25 C    0 0 0
   1 O    1     2.1268     4.0191   68 H    0 0 0
   1 O    1     2.3591     4.4581   21 C    0 0 0
   1 O    1     2.4042     4.5433   29 C    1 0 0
   1 O    1     2.5958     4.9053   49 H    0 0 0

   5 O    1     1.2315     2.3272   37 C    0 0 0
   5 O    1     1.7053     3.2226   64 H    0 1 0
   5 O    1     2.2618     4.2742    9 N    0 1 0
   5 O    1     2.3929     4.5220   41 C    0 0 0
   5 O    1     2.4224     4.5777   45 H    0 1 0
   5 O    1     2.6308     4.9714   69 H    0 0 0

   9 N    1     1.0126     1.9135   65 H    1 0 0
   9 N    1     1.3413     2.5346   37 C    0-1 0
   9 N    1     1.4075     2.6598   13 C    0 0 0
   9 N    1     2.2618     4.2742    5 O    0-1 0
   9 N    1     2.3901     4.5167   33 C    1 0 0
   9 N    1     2.4037     4.5423   41 C    0-1 0

  13 C    1     1.3912     2.6291   17 C    0 0 0
  13 C    1     1.3918     2.6300   33 C    1 0 0
  13 C    1     1.4075     2.6598    9 N    0 0 0
  13 C    1     2.0514     3.8766   65 H    1 0 0
  13 C    1     2.1463     4.0560   57 H    1 0 0
  13 C    1     2.1557     4.0737   45 H    0 0 0

  17 C    1     1.0776     2.0365   45 H    0 0 0
  17 C    1     1.3871     2.6213   21 C    0 0 0
  17 C    1     1.3912     2.6291   13 C    0 0 0
  17 C    1     2.1333     4.0313   49 H    0 0 0
  17 C    1     2.3924     4.5210   33 C    1 0 0
  17 C    1     2.4190     4.5713   25 C    0 0 0

  21 C    1     1.0830     2.0465   49 H    0 0 0
  21 C    1     1.3871     2.6213   17 C    0 0 0
  21 C    1     1.3920     2.6305   25 C    0 0 0
  21 C    1     2.1247     4.0151   45 H    0 0 0
  21 C    1     2.3591     4.4581    1 O    0 0 0
  21 C    1     2.3942     4.5244   29 C    1 0 0

  25 C    1     1.3485     2.5483    1 O    0 0 0
  25 C    1     1.3920     2.6305   21 C    0 0 0
  25 C    1     1.3925     2.6314   29 C    1 0 0
  25 C    1     1.9462     3.6778   61 H    1 0 0
  25 C    1     2.1494     4.0618   49 H    0 0 0
  25 C    1     2.1536     4.0698   53 H    1 0 0

  29 C    1     1.0821     2.0449   53 H    0 0 0
  29 C    1     1.3834     2.6143   33 C    0 0 0
  29 C    1     1.3925     2.6314   25 C   -1 0 0
  29 C    1     2.1310     4.0270   57 H    0 0 0
  29 C    1     2.3942     4.5244   21 C   -1 0 0
  29 C    1     2.4042     4.5433    1 O   -1 0 0

  33 C    1     1.0830     2.0466   57 H    0 0 0
  33 C    1     1.3834     2.6143   29 C    0 0 0
  33 C    1     1.3918     2.6300   13 C   -1 0 0
  33 C    1     2.1321     4.0291   53 H    0 0 0
  33 C    1     2.3901     4.5167    9 N   -1 0 0
  33 C    1     2.3924     4.5210   17 C   -1 0 0

  37 C    1     1.2315     2.3272    5 O    0 0 0
  37 C    1     1.3413     2.5346    9 N    0 1 0
  37 C    1     1.5035     2.8412   41 C    0 0 0
  37 C    1     2.0083     3.7951   65 H    1 1 0
  37 C    1     2.1328     4.0303   77 H    0 0 0
  37 C    1     2.1410     4.0459   69 H    0 0 0

  41 C    1     1.0885     2.0569   73 H    0 0 0
  41 C    1     1.0889     2.0578   69 H    0 0 0
  41 C    1     1.0898     2.0593   77 H    0 0 0
  41 C    1     1.5035     2.8412   37 C    0 0 0
  41 C    1     2.3929     4.5220    5 O    0 0 0
  41 C    1     2.4037     4.5423    9 N    0 1 0

  45 H    1     1.0776     2.0365   17 C    0 0 0
  45 H    1     2.1247     4.0151   21 C    0 0 0
  45 H    1     2.1557     4.0737   13 C    0 0 0
  45 H    1     2.3494     4.4397   47 H    0-1 0
  45 H    1     2.4224     4.5777    5 O    0-1 0
  45 H    1     2.4263     4.5850   49 H    0 0 0

  49 H    1     1.0830     2.0465   21 C    0 0 0
  49 H    1     2.1333     4.0313   17 C    0 0 0
  49 H    1     2.1494     4.0618   25 C    0 0 0
  49 H    1     2.4263     4.5850   45 H    0 0 0
  49 H    1     2.5958     4.9053    1 O    0 0 0
  49 H    1     2.7782     5.2500   68 H    0 0 0

  53 H    1     1.0821     2.0449   29 C    0 0 0
  53 H    1     2.1321     4.0291   33 C    0 0 0
  53 H    1     2.1536     4.0698   25 C   -1 0 0
  53 H    1     2.2929     4.3329   72 H    0 0 0
  53 H    1     2.3788     4.4953   61 H    0 0 0
  53 H    1     2.4373     4.6059   57 H    0 0 0

  57 H    1     1.0830     2.0466   33 C    0 0 0
  57 H    1     2.1310     4.0270   29 C    0 0 0
  57 H    1     2.1463     4.0560   13 C   -1 0 0
  57 H    1     2.3055     4.3568   65 H    0 0 0
  57 H    1     2.4373     4.6059   53 H    0 0 0
  57 H    1     2.5930     4.9001    9 N   -1 0 0

  61 H    1     0.9828     1.8573    1 O   -1 0 0
  61 H    1     1.7053     3.2226    8 O    0 0 0
  61 H    1     1.9462     3.6778   25 C   -1 0 0
  61 H    1     2.3788     4.4953   53 H    0 0 0
  61 H    1     2.5102     4.7436   29 C    0 0 0
  61 H    1     2.7696     5.2339   40 C    0 0 0

  65 H    1     1.0126     1.9135    9 N   -1 0 0
  65 H    1     2.0083     3.7951   37 C   -1-1 0
  65 H    1     2.0514     3.8766   13 C   -1 0 0
  65 H    1     2.1268     4.0191    4 O    0 0 0
  65 H    1     2.1639     4.0893   73 H   -1-1 0
  65 H    1     2.3055     4.3568   57 H    0 0 0

  69 H    1     1.0889     2.0578   41 C    0 0 0
  69 H    1     1.7436     3.2949   77 H    0 0 0
  69 H    1     1.7743     3.3530   73 H    0 0 0
  69 H    1     2.1410     4.0459   37 C    0 0 0
  69 H    1     2.2929     4.3329   56 H    0 1 0
  69 H    1     2.6308     4.9714    5 O    0 0 0

  73 H    1     1.0885     2.0569   41 C    0 0 0
  73 H    1     1.7615     3.3288   77 H    0 0 0
  73 H    1     1.7743     3.3530   69 H    0 0 0
  73 H    1     2.1639     4.0893   65 H    1 1 0
  73 H    1     2.1761     4.1123   37 C    0 0 0
  73 H    1     2.5347     4.7900    9 N    0 1 0

  77 H    1     1.0898     2.0593   41 C    0 0 0
  77 H    1     1.7436     3.2949   69 H    0 0 0
  77 H    1     1.7615     3.3288   73 H    0 0 0
  77 H    1     2.1328     4.0303   37 C    0 0 0
  77 H    1     2.6700     5.0456    6 O    0 0 0
  77 H    1     2.7856     5.2640   63 H    0 0 0


 SYMMETRY ALLOWED INTERNAL DEGREE(S) OF FREEDOM:  60
 TTTTTTTTTTTTTTTTTTTTTTTTTTTTTT SYMM        TELAPSE        3.92 TCPU        2.02
 TTTTTTTTTTTTTTTTTTTTTTTTTTTTTT INT_SCREEN  TELAPSE        4.13 TCPU        2.23

 *******************************************************************************
 *                                                                             *
 *                                                                             *
 *         FFFFF  RRRR   EEEE   QQQ   U   U  EEEE  N   N   CCC  Y   Y          *
 *         F      R   R  E     Q   Q  U   U  E     NN  N  C      Y Y           *
 *         FFF    RRRR   EEEE  Q   Q  U   U  EEEE  N N N  C       Y            *
 *         F      R   R  E     Q  QQ  U   U  E     N  NN  C       Y            *
 *         F      R   R  EEEE   QQ Q   UUU   EEEE  N   N   CCC    Y            *
 *                                                                             *
 *                                                                             *
 * CALCULATION OF PHONON FREQUENCIES AT THE GAMMA POINT.                       *
 *                                                                             *
 * SYMMETRY IS EXPLOITED TO BUILD THE TOTAL HESSIAN MATRIX.                    *
 * (F. PASCALE PHD THESIS TURIN-PARIS 2002)                                    *
 *                                                                             *
 *******************************************************************************


 * INTENSITIES COMPUTED VIA THE BERRY PHASE APPROACH                           *
 *                                                                             *
 * REFERENCES TO BE QUOTED WHEN USING THIS MODULE:                             *
 *                                                                             *
 * F. Pascale, C.M. Zicovich-Wilson, F. Lopez, B. Civalleri                    *
 * R. Orlando, R. Dovesi                                                       *
 * The calculation of the vibration frequencies of crystalline                 *
 * compounds and its implementation in the CRYSTAL code                        *
 * J. Comput. Chem. 25 (2004) 888-897                                          *
 *                                                                             *
 * C.M. Zicovich-Wilson, F. Pascale, C. Roetti, V.R. Saunders,                 *
 * R. Orlando, R. Dovesi                                                       *
 * The calculation of the vibration frequencies of alpha-quartz:               *
 * the effect of hamiltonian and basis set                                     *
 * J. Comput. Chem. 25 (2004) 1873-1881                                        *
 *******************************************************************************



 ATOMS ISOTOPIC MASS (AMU) FOR FREQUENCY CALCULATION 

    1 O      15.9949    2 O      15.9949    3 O      15.9949    4 O      15.9949
    5 O      15.9949    6 O      15.9949    7 O      15.9949    8 O      15.9949
    9 N      14.0031   10 N      14.0031   11 N      14.0031   12 N      14.0031
   13 C      12.0000   14 C      12.0000   15 C      12.0000   16 C      12.0000
   17 C      12.0000   18 C      12.0000   19 C      12.0000   20 C      12.0000
   21 C      12.0000   22 C      12.0000   23 C      12.0000   24 C      12.0000
   25 C      12.0000   26 C      12.0000   27 C      12.0000   28 C      12.0000
   29 C      12.0000   30 C      12.0000   31 C      12.0000   32 C      12.0000
   33 C      12.0000   34 C      12.0000   35 C      12.0000   36 C      12.0000
   37 C      12.0000   38 C      12.0000   39 C      12.0000   40 C      12.0000
   41 C      12.0000   42 C      12.0000   43 C      12.0000   44 C      12.0000
   45 H       1.0078   46 H       1.0078   47 H       1.0078   48 H       1.0078
   49 H       1.0078   50 H       1.0078   51 H       1.0078   52 H       1.0078
   53 H       1.0078   54 H       1.0078   55 H       1.0078   56 H       1.0078
   57 H       1.0078   58 H       1.0078   59 H       1.0078   60 H       1.0078
   61 H       1.0078   62 H       1.0078   63 H       1.0078   64 H       1.0078
   65 H       1.0078   66 H       1.0078   67 H       1.0078   68 H       1.0078
   69 H       1.0078   70 H       1.0078   71 H       1.0078   72 H       1.0078
   73 H       1.0078   74 H       1.0078   75 H       1.0078   76 H       1.0078
   77 H       1.0078   78 H       1.0078   79 H       1.0078   80 H       1.0078

 INFORMATION CONCERNING THE SCF+GRADIENT CALCULATIONS REQUIRED FOR
 GENERATING FREQUENCIES. IN PRINCIPLE 3N+1 SCF + GRADIENT
 CALCULATIONS  ARE REQUIRED;
 FOR EACH OF THEM THE REMAINING POINT SYMMETRY IS INDICATED.
 POINT SYMMETRY PERMITS TO GENERATE GRADIENTS FOR DISPLACEMENT B 
 STARTING FROM THE GRADIENT GENERATED BY DISPLACEMENT A.

   N   LABEL SYMBOL DISPLACEMENT     SYM. 

   1     EQUILIBRIUM GEOMETRY            4

   2      1   O            DX           1
   3      1   O            DY           1
   4      1   O            DZ           1
   5      5   O            DX           1
   6      5   O            DY           1
   7      5   O            DZ           1
   8      9   N            DX           1
   9      9   N            DY           1
  10      9   N            DZ           1
  11     13   C            DX           1
  12     13   C            DY           1
  13     13   C            DZ           1
  14     17   C            DX           1
  15     17   C            DY           1
  16     17   C            DZ           1
  17     21   C            DX           1
  18     21   C            DY           1
  19     21   C            DZ           1
  20     25   C            DX           1
  21     25   C            DY           1
  22     25   C            DZ           1
  23     29   C            DX           1
  24     29   C            DY           1
  25     29   C            DZ           1
  26     33   C            DX           1
  27     33   C            DY           1
  28     33   C            DZ           1
  29     37   C            DX           1
  30     37   C            DY           1
  31     37   C            DZ           1
  32     41   C            DX           1
  33     41   C            DY           1
  34     41   C            DZ           1
  35     45   H            DX           1
  36     45   H            DY           1
  37     45   H            DZ           1
  38     49   H            DX           1
  39     49   H            DY           1
  40     49   H            DZ           1
  41     53   H            DX           1
  42     53   H            DY           1
  43     53   H            DZ           1
  44     57   H            DX           1
  45     57   H            DY           1
  46     57   H            DZ           1
  47     61   H            DX           1
  48     61   H            DY           1
  49     61   H            DZ           1
  50     65   H            DX           1
  51     65   H            DY           1
  52     65   H            DZ           1
  53     69   H            DX           1
  54     69   H            DY           1
  55     69   H            DZ           1
  56     73   H            DX           1
  57     73   H            DY           1
  58     73   H            DZ           1
  59     77   H            DX           1
  60     77   H            DY           1
  61     77   H            DZ           1
 USE OF RESIDUAL SYMMETRY AFTER DISPLACEMENT

 NUMERICAL GRADIENT COMPUTED WITH A SINGLE DISPLACEMENT (+DX) FOR EACH
 CARTESIAN COORDINATE WITH RESPECT TO THE EQUILIBRIUM CONFIGURATION
 DX=  0.003 ANGSTROM
 NUMBER OF IRREDUCIBLE ATOMS                    20
 NUMBER OF SCF+GRADIENT CALCULATIONS            61

  ATOM  SYMOP  ORDER
    1      1      1
    5      1      1
    9      1      1
   13      1      1
   17      1      1
   21      1      1
   25      1      1
   29      1      1
   33      1      1
   37      1      1
   41      1      1
   45      1      1
   49      1      1
   53      1      1
   57      1      1
   61      1      1
   65      1      1
   69      1      1
   73      1      1
   77      1      1

 ATOM  : IRREDUCIBLE ATOM
 SYMOP : NUMBER OF SYMMETRY OPERATORS THAT DOESN'T MOVE THE IRREDUCIBLE ATOM
 ORDER : MAXIMUM ORDER AMONG THE OPERATORS OF THE IRREDUCIBLE ATOM

 *******************************************************************************


 GCALCO - MAX INDICES DIRECT LATTICE VECTOR    20    14    11
 NO.OF VECTORS CREATED 6999 STARS 1868 RMAX   206.85809 BOHR

 CAPPA:IS1  4;IS2  4;IS3  2; K PTS MONK NET  18; SYMMOPS:K SPACE   4;G SPACE   4

 TTTTTTTTTTTTTTTTTTTTTTTTTTTTTT gordsh1     TELAPSE        4.16 TCPU        2.26

 MATRIX SIZE: P(G) 2182976, F(G)  203940, P(G) IRR  276885, F(G) IRR   51758
 MAX G-VECTOR INDEX FOR 1- AND 2-ELECTRON INTEGRALS  97

 TTTTTTTTTTTTTTTTTTTTTTTTTTTTTT INPUT       TELAPSE        4.18 TCPU        2.28

 SYMMETRY ALLOWED INTERNAL DEGREE(S) OF FREEDOM:  60
 TTTTTTTTTTTTTTTTTTTTTTTTTTTTTT SYMM        TELAPSE        4.20 TCPU        2.30
 TTTTTTTTTTTTTTTTTTTTTTTTTTTTTT INT_SCREEN  TELAPSE        4.21 TCPU        2.31
 INFORMATION **** EXCBUF **** EXCH. BIPO BUFFER: WORDS USED =     3713157

 DFT PARAMETERS

     ATOM       ELECTRONS   NET CHARGE   R(ANGSTROM)
   1   8  O       8.0000      0.0000     0.74000000
   9   7  N       7.0000      0.0000     0.74000000
  13   6  C       6.0000      0.0000     0.77000000
  45   1  H       1.0000      0.0000     1.11000000

 SIZE OF GRID=    1008019
 TTTTTTTTTTTTTTTTTTTTTTTTTTTTTT MAKE_GRID2  TELAPSE        7.28 TCPU        5.38
 BECKE WEIGHT FUNCTION
 RADSAFE =     2.00
 TOLERANCES - DENSITY:10**- 6; POTENTIAL:10**- 9; GRID WGT:10**-14

 RADIAL INTEGRATION  - INTERVALS (POINTS,UPPER LIMIT):            1( 99,  4.0*R)

 ANGULAR INTEGRATION - INTERVALS (ACCURACY LEVEL [N. POINTS] UPPER LIMIT):
  1(  6[ 146]   0.2)  2( 11[ 302]   0.5)  3( 14[ 590]   0.9)  4( 18[1454]   3.5)
  5( 14[ 590]9999.0)
 TTTTTTTTTTTTTTTTTTTTTTTTTTTTTT INT_CALC    TELAPSE        7.32 TCPU        5.41

 *******************************************************************************
 F1 vol step6 freq - PBEh-3c                                                     
 CRYSTAL - SCF - TYPE OF CALCULATION :  RESTRICTED CLOSED SHELL
 *******************************************************************************

 CAPPA:IS1  4;IS2  4;IS3  2; K PTS MONK NET  18; SYMMOPS:K SPACE   4;G SPACE   4

 TTTTTTTTTTTTTTTTTTTTTTTTTTTTTT SDIK        TELAPSE        7.59 TCPU        5.69

 AAAAAAAAAAAAAAAAAAAAAAAAAAAAAAAAAAAAAAAAAAAAAAAAAAAAAAAAAAAAAAAAAAAAAAAAAAAAAAA
         ATOMIC WAVEFUNCTION(S)


 NUCLEAR CHARGE  8.0  SYMMETRY SPECIES            S    P
 N. ELECTRONS    8.0  NUMBER OF PRIMITIVE GTOS    8    4
                      NUMBER OF CONTRACTED GTOS   4    2
                      NUMBER OF CLOSED SHELLS     2    0
                      OPEN SHELL OCCUPATION       0    4

  ZNUC SCFIT  TOTAL HF ENERGY   KINETIC ENERGY   VIRIAL THEOREM ACCURACY
   8.0  12   -7.477373220E+01  7.477365593E+01 -2.000001020E+00  3.8E-06

 NUCLEAR CHARGE  7.0  SYMMETRY SPECIES            S    P
 N. ELECTRONS    7.0  NUMBER OF PRIMITIVE GTOS    8    4
                      NUMBER OF CONTRACTED GTOS   4    2
                      NUMBER OF CLOSED SHELLS     2    0
                      OPEN SHELL OCCUPATION       0    3

  ZNUC SCFIT  TOTAL HF ENERGY   KINETIC ENERGY   VIRIAL THEOREM ACCURACY
   7.0   9   -5.437948210E+01  5.437948297E+01 -1.999999984E+00  1.2E-06

 NUCLEAR CHARGE  6.0  SYMMETRY SPECIES            S    P
 N. ELECTRONS    6.0  NUMBER OF PRIMITIVE GTOS    8    4
                      NUMBER OF CONTRACTED GTOS   4    2
                      NUMBER OF CLOSED SHELLS     2    0
                      OPEN SHELL OCCUPATION       0    2

  ZNUC SCFIT  TOTAL HF ENERGY   KINETIC ENERGY   VIRIAL THEOREM ACCURACY
   6.0   9   -3.767634636E+01  3.767630973E+01 -2.000000972E+00  4.2E-06

 NUCLEAR CHARGE  1.0  SYMMETRY SPECIES            S
 N. ELECTRONS    1.0  NUMBER OF PRIMITIVE GTOS    4
                      NUMBER OF CONTRACTED GTOS   2
                      NUMBER OF CLOSED SHELLS     0
                      OPEN SHELL OCCUPATION       1

  ZNUC SCFIT  TOTAL HF ENERGY   KINETIC ENERGY   VIRIAL THEOREM ACCURACY
   1.0   1   -4.977266687E-01  5.190767460E-01 -1.958869132E+00  2.2E-17

 AAAAAAAAAAAAAAAAAAAAAAAAAAAAAAAAAAAAAAAAAAAAAAAAAAAAAAAAAAAAAAAAAAAAAAAAAAAAAAA

 TTTTTTTTTTTTTTTTTTTTTTTTTTTTTT MOQGAD      TELAPSE        8.03 TCPU        5.98
 TTTTTTTTTTTTTTTTTTTTTTTTTTTTTT SHELLXN     TELAPSE       11.19 TCPU        9.12
 TTTTTTTTTTTTTTTTTTTTTTTTTTTTTT MONMO3      TELAPSE       12.86 TCPU       10.79
 NUMERICALLY INTEGRATED DENSITY    319.9999173137
 TTTTTTTTTTTTTTTTTTTTTTTTTTTTTT NUMDFT      TELAPSE       13.18 TCPU       11.10
 CYC   0 ETOT(AU) -2.070619918322E+03 DETOT -2.07E+03 tst  0.00E+00 PX  1.00E+00
 TTTTTTTTTTTTTTTTTTTTTTTTTTTTTT DIIS        TELAPSE       13.21 TCPU       11.14
 TTTTTTTTTTTTTTTTTTTTTTTTTTTTTT FDIK        TELAPSE       13.79 TCPU       11.71
 INSULATING STATE
 TOP OF VALENCE BANDS -    BAND    160; K    1; EIG -2.8259360E-01 AU
 BOTTOM OF VIRTUAL BANDS - BAND    161; K    7; EIG -1.2466730E-01 AU
 INDIRECT ENERGY BAND GAP:   4.2974 eV
 BOTTOM OF VIRTUAL BANDS - BAND    161; K    1; EIG -1.1955204E-01 AU
 TTTTTTTTTTTTTTTTTTTTTTTTTTTTTT PDIG        TELAPSE       14.14 TCPU       12.06
 TTTTTTTTTTTTTTTTTTTTTTTTTTTTTT MOQGAD      TELAPSE       14.14 TCPU       12.07
 TTTTTTTTTTTTTTTTTTTTTTTTTTTTTT SHELLXN     TELAPSE       17.41 TCPU       15.34
 TTTTTTTTTTTTTTTTTTTTTTTTTTTTTT MONMO3      TELAPSE       19.18 TCPU       17.10
 NUMERICALLY INTEGRATED DENSITY    319.9999294475
 TTTTTTTTTTTTTTTTTTTTTTTTTTTTTT NUMDFT      TELAPSE       19.66 TCPU       17.59
 CYC   1 ETOT(AU) -2.057241970486E+03 DETOT  1.34E+01 tst  0.00E+00 PX  1.00E+00
 TTTTTTTTTTTTTTTTTTTTTTTTTTTTTT DIIS        TELAPSE       19.69 TCPU       17.62
 DIIS TEST: 0.17658E+01 AT SCF   CYCLE   1 - MIX   50 %
 TTTTTTTTTTTTTTTTTTTTTTTTTTTTTT FDIK        TELAPSE       20.28 TCPU       18.20
 INSULATING STATE
 TOP OF VALENCE BANDS -    BAND    160; K   10; EIG -2.5021875E-01 AU
 TOP OF VALENCE BANDS -    BAND    160; K    1; EIG -2.5028115E-01 AU
 BOTTOM OF VIRTUAL BANDS - BAND    161; K    1; EIG -4.6906487E-02 AU
 INDIRECT ENERGY BAND GAP:   5.5324 eV
 TTTTTTTTTTTTTTTTTTTTTTTTTTTTTT PDIG        TELAPSE       20.62 TCPU       18.54
 TTTTTTTTTTTTTTTTTTTTTTTTTTTTTT MOQGAD      TELAPSE       20.63 TCPU       18.55
 TTTTTTTTTTTTTTTTTTTTTTTTTTTTTT SHELLXN     TELAPSE       23.89 TCPU       21.80
 TTTTTTTTTTTTTTTTTTTTTTTTTTTTTT MONMO3      TELAPSE       25.65 TCPU       23.56
 NUMERICALLY INTEGRATED DENSITY    319.9999256252
 TTTTTTTTTTTTTTTTTTTTTTTTTTTTTT NUMDFT      TELAPSE       26.06 TCPU       23.98
 CYC   2 ETOT(AU) -2.057709225498E+03 DETOT -4.67E-01 tst  9.65E-04 PX  1.28E-01
 TTTTTTTTTTTTTTTTTTTTTTTTTTTTTT DIIS        TELAPSE       26.09 TCPU       24.01
 DIIS TEST: 0.14370E+00 AT SCF   CYCLE   2 - DIIS ACTIVE - HISTORY:     2 CYCLES
 TTTTTTTTTTTTTTTTTTTTTTTTTTTTTT FDIK        TELAPSE       26.71 TCPU       24.60
 INSULATING STATE
 TOP OF VALENCE BANDS -    BAND    160; K   10; EIG -2.4183478E-01 AU
 TOP OF VALENCE BANDS -    BAND    160; K    1; EIG -2.4189345E-01 AU
 BOTTOM OF VIRTUAL BANDS - BAND    161; K    7; EIG -4.7986283E-03 AU
 INDIRECT ENERGY BAND GAP:   6.4501 eV
 BOTTOM OF VIRTUAL BANDS - BAND    161; K    1; EIG -1.9420415E-03 AU
 TTTTTTTTTTTTTTTTTTTTTTTTTTTTTT PDIG        TELAPSE       27.05 TCPU       24.95
 TTTTTTTTTTTTTTTTTTTTTTTTTTTTTT MOQGAD      TELAPSE       27.06 TCPU       24.95
 TTTTTTTTTTTTTTTTTTTTTTTTTTTTTT SHELLXN     TELAPSE       30.34 TCPU       28.23
 TTTTTTTTTTTTTTTTTTTTTTTTTTTTTT MONMO3      TELAPSE       32.07 TCPU       29.96
 NUMERICALLY INTEGRATED DENSITY    319.9999208116
 TTTTTTTTTTTTTTTTTTTTTTTTTTTTTT NUMDFT      TELAPSE       32.48 TCPU       30.37
 CYC   3 ETOT(AU) -2.057731404739E+03 DETOT -2.22E-02 tst  2.09E-04 PX  4.29E-02
 TTTTTTTTTTTTTTTTTTTTTTTTTTTTTT DIIS        TELAPSE       32.51 TCPU       30.40
 DIIS TEST: 0.80392E-01 AT SCF   CYCLE   3 - DIIS ACTIVE - HISTORY:     3 CYCLES
 TTTTTTTTTTTTTTTTTTTTTTTTTTTTTT FDIK        TELAPSE       33.09 TCPU       30.97
 INSULATING STATE
 TOP OF VALENCE BANDS -    BAND    160; K   10; EIG -2.5207992E-01 AU
 TOP OF VALENCE BANDS -    BAND    160; K    1; EIG -2.5219348E-01 AU
 BOTTOM OF VIRTUAL BANDS - BAND    161; K    7; EIG -1.1742523E-02 AU
 INDIRECT ENERGY BAND GAP:   6.5399 eV
 BOTTOM OF VIRTUAL BANDS - BAND    161; K    1; EIG -7.7731814E-03 AU
 TTTTTTTTTTTTTTTTTTTTTTTTTTTTTT PDIG        TELAPSE       33.43 TCPU       31.32
 TTTTTTTTTTTTTTTTTTTTTTTTTTTTTT MOQGAD      TELAPSE       33.43 TCPU       31.32
 TTTTTTTTTTTTTTTTTTTTTTTTTTTTTT SHELLXN     TELAPSE       36.68 TCPU       34.57
 TTTTTTTTTTTTTTTTTTTTTTTTTTTTTT MONMO3      TELAPSE       38.44 TCPU       36.33
 NUMERICALLY INTEGRATED DENSITY    319.9999230436
 TTTTTTTTTTTTTTTTTTTTTTTTTTTTTT NUMDFT      TELAPSE       38.99 TCPU       36.87
 CYC   4 ETOT(AU) -2.057749700793E+03 DETOT -1.83E-02 tst  1.19E-04 PX  3.23E-02
 TTTTTTTTTTTTTTTTTTTTTTTTTTTTTT DIIS        TELAPSE       39.02 TCPU       36.90
 DIIS TEST: 0.90739E-02 AT SCF   CYCLE   4 - DIIS ACTIVE - HISTORY:     4 CYCLES
 TTTTTTTTTTTTTTTTTTTTTTTTTTTTTT FDIK        TELAPSE       39.60 TCPU       37.48
 INSULATING STATE
 TOP OF VALENCE BANDS -    BAND    160; K   10; EIG -2.4975576E-01 AU
 TOP OF VALENCE BANDS -    BAND    160; K    1; EIG -2.4985977E-01 AU
 BOTTOM OF VIRTUAL BANDS - BAND    161; K    7; EIG -9.7372121E-03 AU
 INDIRECT ENERGY BAND GAP:   6.5312 eV
 BOTTOM OF VIRTUAL BANDS - BAND    161; K    1; EIG -6.4952014E-03 AU
 TTTTTTTTTTTTTTTTTTTTTTTTTTTTTT PDIG        TELAPSE       39.95 TCPU       37.83
 TTTTTTTTTTTTTTTTTTTTTTTTTTTTTT MOQGAD      TELAPSE       39.95 TCPU       37.83
 TTTTTTTTTTTTTTTTTTTTTTTTTTTTTT SHELLXN     TELAPSE       43.25 TCPU       41.10
 TTTTTTTTTTTTTTTTTTTTTTTTTTTTTT MONMO3      TELAPSE       44.98 TCPU       42.83
 NUMERICALLY INTEGRATED DENSITY    319.9999224976
 TTTTTTTTTTTTTTTTTTTTTTTTTTTTTT NUMDFT      TELAPSE       45.38 TCPU       43.23
 CYC   5 ETOT(AU) -2.057751846360E+03 DETOT -2.15E-03 tst  9.46E-06 PX  8.03E-03
 TTTTTTTTTTTTTTTTTTTTTTTTTTTTTT DIIS        TELAPSE       45.41 TCPU       43.26
 DIIS TEST: 0.83017E-03 AT SCF   CYCLE   5 - DIIS ACTIVE - HISTORY:     5 CYCLES
 TTTTTTTTTTTTTTTTTTTTTTTTTTTTTT FDIK        TELAPSE       45.99 TCPU       43.84
 INSULATING STATE
 TOP OF VALENCE BANDS -    BAND    160; K   10; EIG -2.4943349E-01 AU
 TOP OF VALENCE BANDS -    BAND    160; K    1; EIG -2.4953991E-01 AU
 BOTTOM OF VIRTUAL BANDS - BAND    161; K    7; EIG -9.4258342E-03 AU
 INDIRECT ENERGY BAND GAP:   6.5309 eV
 BOTTOM OF VIRTUAL BANDS - BAND    161; K    1; EIG -5.8314774E-03 AU
 TTTTTTTTTTTTTTTTTTTTTTTTTTTTTT PDIG        TELAPSE       46.34 TCPU       44.18
 TTTTTTTTTTTTTTTTTTTTTTTTTTTTTT MOQGAD      TELAPSE       46.34 TCPU       44.19
 TTTTTTTTTTTTTTTTTTTTTTTTTTTTTT SHELLXN     TELAPSE       49.58 TCPU       47.43
 TTTTTTTTTTTTTTTTTTTTTTTTTTTTTT MONMO3      TELAPSE       51.47 TCPU       49.32
 NUMERICALLY INTEGRATED DENSITY    319.9999223999
 TTTTTTTTTTTTTTTTTTTTTTTTTTTTTT NUMDFT      TELAPSE       52.00 TCPU       49.84
 CYC   6 ETOT(AU) -2.057752034485E+03 DETOT -1.88E-04 tst  1.42E-06 PX  1.77E-03
 TTTTTTTTTTTTTTTTTTTTTTTTTTTTTT DIIS        TELAPSE       52.03 TCPU       49.87
 DIIS TEST: 0.48844E-04 AT SCF   CYCLE   6 - DIIS ACTIVE - HISTORY:     6 CYCLES
 TTTTTTTTTTTTTTTTTTTTTTTTTTTTTT FDIK        TELAPSE       52.61 TCPU       50.45
 INSULATING STATE
 TOP OF VALENCE BANDS -    BAND    160; K   10; EIG -2.4936121E-01 AU
 TOP OF VALENCE BANDS -    BAND    160; K    1; EIG -2.4946307E-01 AU
 BOTTOM OF VIRTUAL BANDS - BAND    161; K    7; EIG -9.4078997E-03 AU
 INDIRECT ENERGY BAND GAP:   6.5295 eV
 BOTTOM OF VIRTUAL BANDS - BAND    161; K    1; EIG -5.7193067E-03 AU
 TTTTTTTTTTTTTTTTTTTTTTTTTTTTTT PDIG        TELAPSE       52.96 TCPU       50.79
 TTTTTTTTTTTTTTTTTTTTTTTTTTTTTT MOQGAD      TELAPSE       52.96 TCPU       50.80
 TTTTTTTTTTTTTTTTTTTTTTTTTTTTTT SHELLXN     TELAPSE       56.21 TCPU       54.05
 TTTTTTTTTTTTTTTTTTTTTTTTTTTTTT MONMO3      TELAPSE       57.97 TCPU       55.81
 NUMERICALLY INTEGRATED DENSITY    319.9999223817
 TTTTTTTTTTTTTTTTTTTTTTTTTTTTTT NUMDFT      TELAPSE       58.51 TCPU       56.35
 CYC   7 ETOT(AU) -2.057752044774E+03 DETOT -1.03E-05 tst  2.17E-07 PX  5.00E-04
 TTTTTTTTTTTTTTTTTTTTTTTTTTTTTT DIIS        TELAPSE       58.56 TCPU       56.40
 DIIS TEST: 0.78552E-05 AT SCF   CYCLE   7 - DIIS ACTIVE - HISTORY:     7 CYCLES
 TTTTTTTTTTTTTTTTTTTTTTTTTTTTTT FDIK        TELAPSE       59.14 TCPU       56.97
 INSULATING STATE
 TOP OF VALENCE BANDS -    BAND    160; K   10; EIG -2.4939807E-01 AU
 TOP OF VALENCE BANDS -    BAND    160; K    1; EIG -2.4950201E-01 AU
 BOTTOM OF VIRTUAL BANDS - BAND    161; K    7; EIG -9.4138782E-03 AU
 INDIRECT ENERGY BAND GAP:   6.5303 eV
 BOTTOM OF VIRTUAL BANDS - BAND    161; K    1; EIG -5.7701453E-03 AU
 TTTTTTTTTTTTTTTTTTTTTTTTTTTTTT PDIG        TELAPSE       59.48 TCPU       57.31
 TTTTTTTTTTTTTTTTTTTTTTTTTTTTTT MOQGAD      TELAPSE       59.49 TCPU       57.32
 TTTTTTTTTTTTTTTTTTTTTTTTTTTTTT SHELLXN     TELAPSE       62.77 TCPU       60.55
 TTTTTTTTTTTTTTTTTTTTTTTTTTTTTT MONMO3      TELAPSE       64.52 TCPU       62.30
 NUMERICALLY INTEGRATED DENSITY    319.9999223746
 TTTTTTTTTTTTTTTTTTTTTTTTTTTTTT NUMDFT      TELAPSE       65.05 TCPU       62.83
 CYC   8 ETOT(AU) -2.057752047277E+03 DETOT -2.50E-06 tst  1.52E-08 PX  1.84E-04
 TTTTTTTTTTTTTTTTTTTTTTTTTTTTTT DIIS        TELAPSE       65.08 TCPU       62.87
 DIIS TEST: 0.29480E-06 AT SCF   CYCLE   8 - DIIS ACTIVE - HISTORY:     8 CYCLES
 TTTTTTTTTTTTTTTTTTTTTTTTTTTTTT FDIK        TELAPSE       65.66 TCPU       63.44
 INSULATING STATE
 TOP OF VALENCE BANDS -    BAND    160; K   10; EIG -2.4940747E-01 AU
 TOP OF VALENCE BANDS -    BAND    160; K    1; EIG -2.4951071E-01 AU
 BOTTOM OF VIRTUAL BANDS - BAND    161; K    7; EIG -9.4187208E-03 AU
 INDIRECT ENERGY BAND GAP:   6.5304 eV
 BOTTOM OF VIRTUAL BANDS - BAND    161; K    1; EIG -5.7736575E-03 AU
 TTTTTTTTTTTTTTTTTTTTTTTTTTTTTT PDIG        TELAPSE       66.01 TCPU       63.79
 TTTTTTTTTTTTTTTTTTTTTTTTTTTTTT MOQGAD      TELAPSE       66.01 TCPU       63.79
 TTTTTTTTTTTTTTTTTTTTTTTTTTTTTT SHELLXN     TELAPSE       69.27 TCPU       67.05
 TTTTTTTTTTTTTTTTTTTTTTTTTTTTTT MONMO3      TELAPSE       71.02 TCPU       68.80
 NUMERICALLY INTEGRATED DENSITY    319.9999223745
 TTTTTTTTTTTTTTTTTTTTTTTTTTTTTT NUMDFT      TELAPSE       71.57 TCPU       69.34
 CYC   9 ETOT(AU) -2.057752047536E+03 DETOT -2.60E-07 tst  1.34E-09 PX  5.16E-05
 TTTTTTTTTTTTTTTTTTTTTTTTTTTTTT DIIS        TELAPSE       71.63 TCPU       69.40
 DIIS TEST: 0.72030E-07 AT SCF   CYCLE   9 - DIIS ACTIVE - HISTORY:     9 CYCLES
 TTTTTTTTTTTTTTTTTTTTTTTTTTTTTT FDIK        TELAPSE       72.21 TCPU       69.98
 INSULATING STATE
 TOP OF VALENCE BANDS -    BAND    160; K   10; EIG -2.4940608E-01 AU
 TOP OF VALENCE BANDS -    BAND    160; K    1; EIG -2.4950963E-01 AU
 BOTTOM OF VIRTUAL BANDS - BAND    161; K    7; EIG -9.4236989E-03 AU
 INDIRECT ENERGY BAND GAP:   6.5303 eV
 BOTTOM OF VIRTUAL BANDS - BAND    161; K    1; EIG -5.7711914E-03 AU
 TTTTTTTTTTTTTTTTTTTTTTTTTTTTTT PDIG        TELAPSE       72.55 TCPU       70.32
 TTTTTTTTTTTTTTTTTTTTTTTTTTTTTT MOQGAD      TELAPSE       72.56 TCPU       70.33
 TTTTTTTTTTTTTTTTTTTTTTTTTTTTTT SHELLXN     TELAPSE       75.80 TCPU       73.57
 TTTTTTTTTTTTTTTTTTTTTTTTTTTTTT MONMO3      TELAPSE       77.60 TCPU       75.37
 NUMERICALLY INTEGRATED DENSITY    319.9999223739
 TTTTTTTTTTTTTTTTTTTTTTTTTTTTTT NUMDFT      TELAPSE       78.15 TCPU       75.91
 CYC  10 ETOT(AU) -2.057752047558E+03 DETOT -2.18E-08 tst  1.05E-10 PX  2.58E-05
 TTTTTTTTTTTTTTTTTTTTTTTTTTTTTT DIIS        TELAPSE       79.38 TCPU       77.14
 DIIS TEST: 0.52882E-08 AT SCF   CYCLE  10 - DIIS ACTIVE - HISTORY:    10 CYCLES
 TTTTTTTTTTTTTTTTTTTTTTTTTTTTTT FDIK        TELAPSE       80.46 TCPU       78.23
 INSULATING STATE
 TOP OF VALENCE BANDS -    BAND    160; K   10; EIG -2.4940598E-01 AU
 TOP OF VALENCE BANDS -    BAND    160; K    1; EIG -2.4950948E-01 AU
 BOTTOM OF VIRTUAL BANDS - BAND    161; K    7; EIG -9.4216240E-03 AU
 INDIRECT ENERGY BAND GAP:   6.5303 eV
 BOTTOM OF VIRTUAL BANDS - BAND    161; K    1; EIG -5.7709399E-03 AU
 TTTTTTTTTTTTTTTTTTTTTTTTTTTTTT PDIG        TELAPSE       80.81 TCPU       78.57
 TTTTTTTTTTTTTTTTTTTTTTTTTTTTTT MOQGAD      TELAPSE       80.81 TCPU       78.58
 TTTTTTTTTTTTTTTTTTTTTTTTTTTTTT SHELLXN     TELAPSE       84.07 TCPU       81.83
 TTTTTTTTTTTTTTTTTTTTTTTTTTTTTT MONMO3      TELAPSE       85.84 TCPU       83.60
 NUMERICALLY INTEGRATED DENSITY    319.9999223734
 TTTTTTTTTTTTTTTTTTTTTTTTTTTTTT NUMDFT      TELAPSE       86.25 TCPU       84.01
 CYC  11 ETOT(AU) -2.057752047576E+03 DETOT -1.80E-08 tst  1.10E-11 PX  5.77E-06
 TTTTTTTTTTTTTTTTTTTTTTTTTTTTTT DIIS        TELAPSE       86.28 TCPU       84.04
 DIIS TEST: 0.42903E-09 AT SCF   CYCLE  11 - DIIS ACTIVE - HISTORY:    11 CYCLES
 TTTTTTTTTTTTTTTTTTTTTTTTTTTTTT FDIK        TELAPSE       86.86 TCPU       84.62
 INSULATING STATE
 TOP OF VALENCE BANDS -    BAND    160; K   10; EIG -2.4940555E-01 AU
 TOP OF VALENCE BANDS -    BAND    160; K    1; EIG -2.4950908E-01 AU
 BOTTOM OF VIRTUAL BANDS - BAND    161; K    7; EIG -9.4216234E-03 AU
 INDIRECT ENERGY BAND GAP:   6.5303 eV
 BOTTOM OF VIRTUAL BANDS - BAND    161; K    1; EIG -5.7707363E-03 AU
 TTTTTTTTTTTTTTTTTTTTTTTTTTTTTT PDIG        TELAPSE       87.20 TCPU       84.96
 TTTTTTTTTTTTTTTTTTTTTTTTTTTTTT MOQGAD      TELAPSE       87.21 TCPU       84.96
 TTTTTTTTTTTTTTTTTTTTTTTTTTTTTT SHELLXN     TELAPSE       90.45 TCPU       88.21
 TTTTTTTTTTTTTTTTTTTTTTTTTTTTTT MONMO3      TELAPSE       92.22 TCPU       89.97
 NUMERICALLY INTEGRATED DENSITY    319.9999223735
 TTTTTTTTTTTTTTTTTTTTTTTTTTTTTT NUMDFT      TELAPSE       92.69 TCPU       90.45
 CYC  12 ETOT(AU) -2.057752047574E+03 DETOT  2.12E-09 tst  9.82E-13 PX  1.57E-06
 TTTTTTTTTTTTTTTTTTTTTTTTTTTTTT DIIS        TELAPSE       92.72 TCPU       90.48
 DIIS TEST: 0.35850E-10 AT SCF   CYCLE  12 - DIIS ACTIVE - HISTORY:    12 CYCLES
 TTTTTTTTTTTTTTTTTTTTTTTTTTTTTT FDIK        TELAPSE       93.30 TCPU       91.05
 INSULATING STATE
 TOP OF VALENCE BANDS -    BAND    160; K   10; EIG -2.4940544E-01 AU
 TOP OF VALENCE BANDS -    BAND    160; K    1; EIG -2.4950897E-01 AU
 BOTTOM OF VIRTUAL BANDS - BAND    161; K    7; EIG -9.4214762E-03 AU
 INDIRECT ENERGY BAND GAP:   6.5303 eV
 BOTTOM OF VIRTUAL BANDS - BAND    161; K    1; EIG -5.7705636E-03 AU
 TTTTTTTTTTTTTTTTTTTTTTTTTTTTTT PDIG        TELAPSE       93.65 TCPU       91.40
 TTTTTTTTTTTTTTTTTTTTTTTTTTTTTT MOQGAD      TELAPSE       93.65 TCPU       91.40
 TTTTTTTTTTTTTTTTTTTTTTTTTTTTTT SHELLXN     TELAPSE       96.95 TCPU       94.66
 TTTTTTTTTTTTTTTTTTTTTTTTTTTTTT MONMO3      TELAPSE       98.68 TCPU       96.39
 NUMERICALLY INTEGRATED DENSITY    319.9999223735
 TTTTTTTTTTTTTTTTTTTTTTTTTTTTTT NUMDFT      TELAPSE       99.08 TCPU       96.79
 CYC  13 ETOT(AU) -2.057752047574E+03 DETOT -7.46E-11 tst  1.35E-13 PX  4.50E-07
 TTTTTTTTTTTTTTTTTTTTTTTTTTTTTT DIIS        TELAPSE       99.14 TCPU       96.85
 DIIS TEST: 0.19719E-11 AT SCF   CYCLE  13 - DIIS ACTIVE - HISTORY:    13 CYCLES
 TTTTTTTTTTTTTTTTTTTTTTTTTTTTTT FDIK        TELAPSE       99.72 TCPU       97.42
 INSULATING STATE
 TOP OF VALENCE BANDS -    BAND    160; K   10; EIG -2.4940540E-01 AU
[...]
Note: The following floating-point exceptions are signalling: IEEE_UNDERFLOW_FLAG IEEE_DENORMAL
Note: The following floating-point exceptions are signalling: IEEE_UNDERFLOW_FLAG IEEE_DENORMAL
Note: The following floating-point exceptions are signalling: IEEE_UNDERFLOW_FLAG IEEE_DENORMAL
Note: The following floating-point exceptions are signalling: IEEE_UNDERFLOW_FLAG IEEE_DENORMAL
Note: The following floating-point exceptions are signalling: IEEE_UNDERFLOW_FLAG IEEE_DENORMAL
Note: The following floating-point exceptions are signalling: IEEE_UNDERFLOW_FLAG IEEE_DENORMAL
Note: The following floating-point exceptions are signalling: IEEE_UNDERFLOW_FLAG IEEE_DENORMAL
Note: The following floating-point exceptions are signalling: IEEE_UNDERFLOW_FLAG IEEE_DENORMAL
Note: The following floating-point exceptions are signalling: IEEE_UNDERFLOW_FLAG IEEE_DENORMAL
Note: The following floating-point exceptions are signalling: IEEE_UNDERFLOW_FLAG IEEE_DENORMAL
Note: The following floating-point exceptions are signalling: IEEE_UNDERFLOW_FLAG IEEE_DENORMAL
Note: The following floating-point exceptions are signalling: IEEE_UNDERFLOW_FLAG IEEE_DENORMAL
Note: The following floating-point exceptions are signalling: IEEE_UNDERFLOW_FLAG IEEE_DENORMAL
Note: The following floating-point exceptions are signalling: IEEE_UNDERFLOW_FLAG IEEE_DENORMAL
Note: The following floating-point exceptions are signalling: IEEE_UNDERFLOW_FLAG IEEE_DENORMAL
Note: The following floating-point exceptions are signalling: IEEE_UNDERFLOW_FLAG IEEE_DENORMAL
Note: The following floating-point exceptions are signalling: IEEE_UNDERFLOW_FLAG IEEE_DENORMAL
Note: The following floating-point exceptions are signalling: IEEE_UNDERFLOW_FLAG IEEE_DENORMAL
Note: The following floating-point exceptions are signalling: IEEE_UNDERFLOW_FLAG IEEE_DENORMAL
Note: The following floating-point exceptions are signalling: IEEE_UNDERFLOW_FLAG IEEE_DENORMAL
Note: The following floating-point exceptions are signalling: IEEE_UNDERFLOW_FLAG IEEE_DENORMAL
Note: The following floating-point exceptions are signalling: IEEE_UNDERFLOW_FLAG IEEE_DENORMAL
Note: The following floating-point exceptions are signalling: IEEE_UNDERFLOW_FLAG IEEE_DENORMAL
Note: The following floating-point exceptions are signalling: IEEE_UNDERFLOW_FLAG IEEE_DENORMAL
Note: The following floating-point exceptions are signalling: IEEE_UNDERFLOW_FLAG IEEE_DENORMAL
Note: The following floating-point exceptions are signalling: IEEE_UNDERFLOW_FLAG IEEE_DENORMAL
Note: The following floating-point exceptions are signalling: IEEE_UNDERFLOW_FLAG IEEE_DENORMAL
Note: The following floating-point exceptions are signalling: IEEE_UNDERFLOW_FLAG IEEE_DENORMAL
Note: The following floating-point exceptions are signalling: IEEE_UNDERFLOW_FLAG IEEE_DENORMAL
Note: The following floating-point exceptions are signalling: IEEE_UNDERFLOW_FLAG IEEE_DENORMAL
Note: The following floating-point exceptions are signalling: IEEE_UNDERFLOW_FLAG IEEE_DENORMAL
Note: The following floating-point exceptions are signalling: IEEE_UNDERFLOW_FLAG IEEE_DENORMAL
Note: The following floating-point exceptions are signalling: IEEE_UNDERFLOW_FLAG IEEE_DENORMAL
Note: The following floating-point exceptions are signalling: IEEE_UNDERFLOW_FLAG IEEE_DENORMAL
Note: The following floating-point exceptions are signalling: IEEE_UNDERFLOW_FLAG IEEE_DENORMAL
Note: The following floating-point exceptions are signalling: IEEE_UNDERFLOW_FLAG IEEE_DENORMAL
Note: The following floating-point exceptions are signalling: IEEE_UNDERFLOW_FLAG IEEE_DENORMAL
Note: The following floating-point exceptions are signalling: IEEE_UNDERFLOW_FLAG IEEE_DENORMAL
Note: The following floating-point exceptions are signalling: IEEE_UNDERFLOW_FLAG IEEE_DENORMAL
Note: The following floating-point exceptions are signalling: IEEE_UNDERFLOW_FLAG IEEE_DENORMAL
Note: The following floating-point exceptions are signalling: IEEE_UNDERFLOW_FLAG IEEE_DENORMAL
Note: The following floating-point exceptions are signalling: IEEE_UNDERFLOW_FLAG IEEE_DENORMAL
Note: The following floating-point exceptions are signalling: IEEE_UNDERFLOW_FLAG IEEE_DENORMAL
Note: The following floating-point exceptions are signalling: IEEE_UNDERFLOW_FLAG IEEE_DENORMAL
Note: The following floating-point exceptions are signalling: IEEE_UNDERFLOW_FLAG IEEE_DENORMAL
Note: The following floating-point exceptions are signalling: IEEE_UNDERFLOW_FLAG IEEE_DENORMAL
Note: The following floating-point exceptions are signalling: IEEE_UNDERFLOW_FLAG IEEE_DENORMAL
Note: The following floating-point exceptions are signalling: IEEE_UNDERFLOW_FLAG IEEE_DENORMAL
Note: The following floating-point exceptions are signalling: IEEE_UNDERFLOW_FLAG IEEE_DENORMAL
Note: The following floating-point exceptions are signalling: IEEE_UNDERFLOW_FLAG IEEE_DENORMAL
Note: The following floating-point exceptions are signalling: IEEE_UNDERFLOW_FLAG IEEE_DENORMAL
Note: The following floating-point exceptions are signalling: IEEE_UNDERFLOW_FLAG IEEE_DENORMAL
Note: The following floating-point exceptions are signalling: IEEE_UNDERFLOW_FLAG IEEE_DENORMAL
Note: The following floating-point exceptions are signalling: IEEE_UNDERFLOW_FLAG IEEE_DENORMAL
Note: The following floating-point exceptions are signalling: IEEE_UNDERFLOW_FLAG IEEE_DENORMAL
Note: The following floating-point exceptions are signalling: IEEE_UNDERFLOW_FLAG IEEE_DENORMAL
Note: The following floating-point exceptions are signalling: IEEE_UNDERFLOW_FLAG IEEE_DENORMAL
Note: The following floating-point exceptions are signalling: IEEE_UNDERFLOW_FLAG IEEE_DENORMAL
Note: The following floating-point exceptions are signalling: IEEE_UNDERFLOW_FLAG IEEE_DENORMAL
Note: The following floating-point exceptions are signalling: IEEE_UNDERFLOW_FLAG IEEE_DENORMAL
Note: The following floating-point exceptions are signalling: IEEE_UNDERFLOW_FLAG IEEE_DENORMAL
Note: The following floating-point exceptions are signalling: IEEE_UNDERFLOW_FLAG IEEE_DENORMAL
Note: The following floating-point exceptions are signalling: IEEE_UNDERFLOW_FLAG IEEE_DENORMAL
Note: The following floating-point exceptions are signalling: IEEE_UNDERFLOW_FLAG IEEE_DENORMAL
Note: The following floating-point exceptions are signalling: IEEE_UNDERFLOW_FLAG IEEE_DENORMAL
Note: The following floating-point exceptions are signalling: IEEE_UNDERFLOW_FLAG IEEE_DENORMAL
Note: The following floating-point exceptions are signalling: IEEE_UNDERFLOW_FLAG IEEE_DENORMAL
Note: The following floating-point exceptions are signalling: IEEE_UNDERFLOW_FLAG IEEE_DENORMAL
Note: The following floating-point exceptions are signalling: IEEE_UNDERFLOW_FLAG IEEE_DENORMAL
Note: The following floating-point exceptions are signalling: IEEE_UNDERFLOW_FLAG IEEE_DENORMAL
Note: The following floating-point exceptions are signalling: IEEE_UNDERFLOW_FLAG IEEE_DENORMAL
Note: The following floating-point exceptions are signalling: IEEE_UNDERFLOW_FLAG IEEE_DENORMAL
Note: The following floating-point exceptions are signalling: IEEE_UNDERFLOW_FLAG IEEE_DENORMAL
Note: The following floating-point exceptions are signalling: IEEE_UNDERFLOW_FLAG IEEE_DENORMAL
Note: The following floating-point exceptions are signalling: IEEE_UNDERFLOW_FLAG IEEE_DENORMAL
Note: The following floating-point exceptions are signalling: IEEE_UNDERFLOW_FLAG IEEE_DENORMAL
Note: The following floating-point exceptions are signalling: IEEE_UNDERFLOW_FLAG IEEE_DENORMAL
Note: The following floating-point exceptions are signalling: IEEE_UNDERFLOW_FLAG IEEE_DENORMAL
Note: The following floating-point exceptions are signalling: IEEE_UNDERFLOW_FLAG IEEE_DENORMAL
Note: The following floating-point exceptions are signalling: IEEE_UNDERFLOW_FLAG IEEE_DENORMAL
Note: The following floating-point exceptions are signalling: IEEE_UNDERFLOW_FLAG IEEE_DENORMAL
Note: The following floating-point exceptions are signalling: IEEE_UNDERFLOW_FLAG IEEE_DENORMAL
Note: The following floating-point exceptions are signalling: IEEE_UNDERFLOW_FLAG IEEE_DENORMAL
Note: The following floating-point exceptions are signalling: IEEE_UNDERFLOW_FLAG IEEE_DENORMAL
Note: The following floating-point exceptions are signalling: IEEE_UNDERFLOW_FLAG IEEE_DENORMAL
Note: The following floating-point exceptions are signalling: IEEE_UNDERFLOW_FLAG IEEE_DENORMAL
Note: The following floating-point exceptions are signalling: IEEE_UNDERFLOW_FLAG IEEE_DENORMAL
Note: The following floating-point exceptions are signalling: IEEE_UNDERFLOW_FLAG IEEE_DENORMAL
Note: The following floating-point exceptions are signalling: IEEE_UNDERFLOW_FLAG IEEE_DENORMAL
Note: The following floating-point exceptions are signalling: IEEE_UNDERFLOW_FLAG IEEE_DENORMAL
Note: The following floating-point exceptions are signalling: IEEE_UNDERFLOW_FLAG IEEE_DENORMAL
Note: The following floating-point exceptions are signalling: IEEE_UNDERFLOW_FLAG IEEE_DENORMAL
Note: The following floating-point exceptions are signalling: IEEE_UNDERFLOW_FLAG IEEE_DENORMAL
Note: The following floating-point exceptions are signalling: IEEE_UNDERFLOW_FLAG IEEE_DENORMAL
Note: The following floating-point exceptions are signalling: IEEE_UNDERFLOW_FLAG IEEE_DENORMAL
Note: The following floating-point exceptions are signalling: IEEE_UNDERFLOW_FLAG IEEE_DENORMAL
Note: The following floating-point exceptions are signalling: IEEE_UNDERFLOW_FLAG IEEE_DENORMAL
Note: The following floating-point exceptions are signalling: IEEE_UNDERFLOW_FLAG IEEE_DENORMAL
Note: The following floating-point exceptions are signalling: IEEE_UNDERFLOW_FLAG IEEE_DENORMAL
Note: The following floating-point exceptions are signalling: IEEE_UNDERFLOW_FLAG IEEE_DENORMAL
Note: The following floating-point exceptions are signalling: IEEE_UNDERFLOW_FLAG IEEE_DENORMAL
Note: The following floating-point exceptions are signalling: IEEE_UNDERFLOW_FLAG IEEE_DENORMAL
Note: The following floating-point exceptions are signalling: IEEE_UNDERFLOW_FLAG IEEE_DENORMAL
Note: The following floating-point exceptions are signalling: IEEE_UNDERFLOW_FLAG IEEE_DENORMAL
Note: The following floating-point exceptions are signalling: IEEE_UNDERFLOW_FLAG IEEE_DENORMAL
Note: The following floating-point exceptions are signalling: IEEE_UNDERFLOW_FLAG IEEE_DENORMAL
Note: The following floating-point exceptions are signalling: IEEE_UNDERFLOW_FLAG IEEE_DENORMAL
Note: The following floating-point exceptions are signalling: IEEE_UNDERFLOW_FLAG IEEE_DENORMAL
Note: The following floating-point exceptions are signalling: IEEE_UNDERFLOW_FLAG IEEE_DENORMAL
Note: The following floating-point exceptions are signalling: IEEE_UNDERFLOW_FLAG IEEE_DENORMAL
Note: The following floating-point exceptions are signalling: IEEE_UNDERFLOW_FLAG IEEE_DENORMAL
Note: The following floating-point exceptions are signalling: IEEE_UNDERFLOW_FLAG IEEE_DENORMAL
Note: The following floating-point exceptions are signalling: IEEE_UNDERFLOW_FLAG IEEE_DENORMAL
Note: The following floating-point exceptions are signalling: IEEE_UNDERFLOW_FLAG IEEE_DENORMAL
Note: The following floating-point exceptions are signalling: IEEE_UNDERFLOW_FLAG IEEE_DENORMAL
Note: The following floating-point exceptions are signalling: IEEE_UNDERFLOW_FLAG IEEE_DENORMAL
Note: The following floating-point exceptions are signalling: IEEE_UNDERFLOW_FLAG IEEE_DENORMAL
Note: The following floating-point exceptions are signalling: IEEE_UNDERFLOW_FLAG IEEE_DENORMAL
Note: The following floating-point exceptions are signalling: IEEE_UNDERFLOW_FLAG IEEE_DENORMAL
Note: The following floating-point exceptions are signalling: IEEE_UNDERFLOW_FLAG IEEE_DENORMAL
Note: The following floating-point exceptions are signalling: IEEE_UNDERFLOW_FLAG IEEE_DENORMAL
Note: The following floating-point exceptions are signalling: IEEE_UNDERFLOW_FLAG IEEE_DENORMAL
Note: The following floating-point exceptions are signalling: IEEE_UNDERFLOW_FLAG IEEE_DENORMAL
Note: The following floating-point exceptions are signalling: IEEE_UNDERFLOW_FLAG IEEE_DENORMAL
Note: The following floating-point exceptions are signalling: IEEE_UNDERFLOW_FLAG IEEE_DENORMAL
Note: The following floating-point exceptions are signalling: IEEE_UNDERFLOW_FLAG IEEE_DENORMAL
Note: The following floating-point exceptions are signalling: IEEE_UNDERFLOW_FLAG IEEE_DENORMAL
Note: The following floating-point exceptions are signalling: IEEE_UNDERFLOW_FLAG IEEE_DENORMAL
Note: The following floating-point exceptions are signalling: IEEE_UNDERFLOW_FLAG IEEE_DENORMAL
Note: The following floating-point exceptions are signalling: IEEE_UNDERFLOW_FLAG IEEE_DENORMAL
Note: The following floating-point exceptions are signalling: IEEE_UNDERFLOW_FLAG IEEE_DENORMAL
Note: The following floating-point exceptions are signalling: IEEE_UNDERFLOW_FLAG IEEE_DENORMAL
Note: The following floating-point exceptions are signalling: IEEE_UNDERFLOW_FLAG IEEE_DENORMAL
Note: The following floating-point exceptions are signalling: IEEE_UNDERFLOW_FLAG IEEE_DENORMAL
Note: The following floating-point exceptions are signalling: IEEE_UNDERFLOW_FLAG IEEE_DENORMAL
Note: The following floating-point exceptions are signalling: IEEE_UNDERFLOW_FLAG IEEE_DENORMAL
Note: The following floating-point exceptions are signalling: IEEE_UNDERFLOW_FLAG IEEE_DENORMAL
Note: The following floating-point exceptions are signalling: IEEE_UNDERFLOW_FLAG IEEE_DENORMAL
Note: The following floating-point exceptions are signalling: IEEE_UNDERFLOW_FLAG IEEE_DENORMAL
Note: The following floating-point exceptions are signalling: IEEE_UNDERFLOW_FLAG IEEE_DENORMAL
Note: The following floating-point exceptions are signalling: IEEE_UNDERFLOW_FLAG IEEE_DENORMAL
Note: The following floating-point exceptions are signalling: IEEE_UNDERFLOW_FLAG IEEE_DENORMAL
Note: The following floating-point exceptions are signalling: IEEE_UNDERFLOW_FLAG IEEE_DENORMAL
Note: The following floating-point exceptions are signalling: IEEE_UNDERFLOW_FLAG IEEE_DENORMAL
Note: The following floating-point exceptions are signalling: IEEE_UNDERFLOW_FLAG IEEE_DENORMAL
Note: The following floating-point exceptions are signalling: IEEE_UNDERFLOW_FLAG IEEE_DENORMAL
Note: The following floating-point exceptions are signalling: IEEE_UNDERFLOW_FLAG IEEE_DENORMAL
Note: The following floating-point exceptions are signalling: IEEE_UNDERFLOW_FLAG IEEE_DENORMAL
Note: The following floating-point exceptions are signalling: IEEE_UNDERFLOW_FLAG IEEE_DENORMAL
Note: The following floating-point exceptions are signalling: IEEE_UNDERFLOW_FLAG IEEE_DENORMAL
Note: The following floating-point exceptions are signalling: IEEE_UNDERFLOW_FLAG IEEE_DENORMAL
Note: The following floating-point exceptions are signalling: IEEE_UNDERFLOW_FLAG IEEE_DENORMAL
Note: The following floating-point exceptions are signalling: IEEE_UNDERFLOW_FLAG IEEE_DENORMAL
Note: The following floating-point exceptions are signalling: IEEE_UNDERFLOW_FLAG IEEE_DENORMAL
Note: The following floating-point exceptions are signalling: IEEE_UNDERFLOW_FLAG IEEE_DENORMAL
Note: The following floating-point exceptions are signalling: IEEE_UNDERFLOW_FLAG IEEE_DENORMAL
Note: The following floating-point exceptions are signalling: IEEE_UNDERFLOW_FLAG IEEE_DENORMAL
Note: The following floating-point exceptions are signalling: IEEE_UNDERFLOW_FLAG IEEE_DENORMAL
Note: The following floating-point exceptions are signalling: IEEE_UNDERFLOW_FLAG IEEE_DENORMAL
Note: The following floating-point exceptions are signalling: IEEE_UNDERFLOW_FLAG IEEE_DENORMAL
Note: The following floating-point exceptions are signalling: IEEE_UNDERFLOW_FLAG IEEE_DENORMAL
Note: The following floating-point exceptions are signalling: IEEE_UNDERFLOW_FLAG IEEE_DENORMAL
Note: The following floating-point exceptions are signalling: IEEE_UNDERFLOW_FLAG IEEE_DENORMAL
Note: The following floating-point exceptions are signalling: IEEE_UNDERFLOW_FLAG IEEE_DENORMAL
Note: The following floating-point exceptions are signalling: IEEE_UNDERFLOW_FLAG IEEE_DENORMAL
Note: The following floating-point exceptions are signalling: IEEE_UNDERFLOW_FLAG IEEE_DENORMAL
Note: The following floating-point exceptions are signalling: IEEE_UNDERFLOW_FLAG IEEE_DENORMAL
Note: The following floating-point exceptions are signalling: IEEE_UNDERFLOW_FLAG IEEE_DENORMAL
Note: The following floating-point exceptions are signalling: IEEE_UNDERFLOW_FLAG IEEE_DENORMAL
Note: The following floating-point exceptions are signalling: IEEE_UNDERFLOW_FLAG IEEE_DENORMAL
Note: The following floating-point exceptions are signalling: IEEE_UNDERFLOW_FLAG IEEE_DENORMAL
Note: The following floating-point exceptions are signalling: IEEE_UNDERFLOW_FLAG IEEE_DENORMAL
Note: The following floating-point exceptions are signalling: IEEE_UNDERFLOW_FLAG IEEE_DENORMAL
Note: The following floating-point exceptions are signalling: IEEE_UNDERFLOW_FLAG IEEE_DENORMAL
Note: The following floating-point exceptions are signalling: IEEE_UNDERFLOW_FLAG IEEE_DENORMAL
Note: The following floating-point exceptions are signalling: IEEE_UNDERFLOW_FLAG IEEE_DENORMAL
Note: The following floating-point exceptions are signalling: IEEE_UNDERFLOW_FLAG IEEE_DENORMAL
Note: The following floating-point exceptions are signalling: IEEE_UNDERFLOW_FLAG IEEE_DENORMAL
Note: The following floating-point exceptions are signalling: IEEE_UNDERFLOW_FLAG IEEE_DENORMAL
Note: The following floating-point exceptions are signalling: IEEE_UNDERFLOW_FLAG IEEE_DENORMAL
Note: The following floating-point exceptions are signalling: IEEE_UNDERFLOW_FLAG IEEE_DENORMAL
Note: The following floating-point exceptions are signalling: IEEE_UNDERFLOW_FLAG IEEE_DENORMAL
Note: The following floating-point exceptions are signalling: IEEE_UNDERFLOW_FLAG IEEE_DENORMAL
Note: The following floating-point exceptions are signalling: IEEE_UNDERFLOW_FLAG IEEE_DENORMAL
Note: The following floating-point exceptions are signalling: IEEE_UNDERFLOW_FLAG IEEE_DENORMAL
Note: The following floating-point exceptions are signalling: IEEE_UNDERFLOW_FLAG IEEE_DENORMAL
Note: The following floating-point exceptions are signalling: IEEE_UNDERFLOW_FLAG IEEE_DENORMAL
Note: The following floating-point exceptions are signalling: IEEE_UNDERFLOW_FLAG IEEE_DENORMAL
Note: The following floating-point exceptions are signalling: IEEE_UNDERFLOW_FLAG IEEE_DENORMAL
Note: The following floating-point exceptions are signalling: IEEE_UNDERFLOW_FLAG IEEE_DENORMAL
Note: The following floating-point exceptions are signalling: IEEE_UNDERFLOW_FLAG IEEE_DENORMAL
Note: The following floating-point exceptions are signalling: IEEE_UNDERFLOW_FLAG IEEE_DENORMAL
Note: The following floating-point exceptions are signalling: IEEE_UNDERFLOW_FLAG IEEE_DENORMAL
Note: The following floating-point exceptions are signalling: IEEE_UNDERFLOW_FLAG IEEE_DENORMAL
Note: The following floating-point exceptions are signalling: IEEE_UNDERFLOW_FLAG IEEE_DENORMAL
Note: The following floating-point exceptions are signalling: IEEE_UNDERFLOW_FLAG IEEE_DENORMAL
Note: The following floating-point exceptions are signalling: IEEE_UNDERFLOW_FLAG IEEE_DENORMAL
Note: The following floating-point exceptions are signalling: IEEE_UNDERFLOW_FLAG IEEE_DENORMAL
Note: The following floating-point exceptions are signalling: IEEE_UNDERFLOW_FLAG IEEE_DENORMAL
Note: The following floating-point exceptions are signalling: IEEE_UNDERFLOW_FLAG IEEE_DENORMAL
Note: The following floating-point exceptions are signalling: IEEE_UNDERFLOW_FLAG IEEE_DENORMAL
Note: The following floating-point exceptions are signalling: IEEE_UNDERFLOW_FLAG IEEE_DENORMAL
Note: The following floating-point exceptions are signalling: IEEE_UNDERFLOW_FLAG IEEE_DENORMAL
Note: The following floating-point exceptions are signalling: IEEE_UNDERFLOW_FLAG IEEE_DENORMAL
Note: The following floating-point exceptions are signalling: IEEE_UNDERFLOW_FLAG IEEE_DENORMAL
Note: The following floating-point exceptions are signalling: IEEE_UNDERFLOW_FLAG IEEE_DENORMAL
Note: The following floating-point exceptions are signalling: IEEE_UNDERFLOW_FLAG IEEE_DENORMAL
Note: The following floating-point exceptions are signalling: IEEE_UNDERFLOW_FLAG IEEE_DENORMAL
