Running Job Report
--------------------------------------------
DATE START : Sat 11 Mar 02:02:35 GMT 2023

Pre-Calc Summary
--------------------------------------------
  date:                Sat 11 Mar 02:03:03 GMT 2023
  hostname:            cx3-13-0.cx3.hpc.ic.ac.uk
  system:              Linux cx3-13-0.cx3.hpc.ic.ac.uk 4.18.0-348.20.1.el8_5.x86_64 #1 SMP Tue Mar 8 12:56:54 EST 2022 x86_64 x86_64 x86_64 GNU/Linux
  user:                hz1420
  input:               /rds/general/user/hz1420/home/GitHub/crystal_shape_control/Imperial-HPC-Job-Submission/LAMMPS/testcase/f1_nvt.in
  output:              /rds/general/user/hz1420/home/GitHub/crystal_shape_control/Imperial-HPC-Job-Submission/LAMMPS/testcase/f1_nvt.out
  temporary directory: /rds/general/user/hz1420/home/GitHub/crystal_shape_control/Imperial-HPC-Job-Submission/LAMMPS/testcase
  executable script:   /rds/general/user/hz1420/home/GitHub/crystal_shape_control/Imperial-HPC-Job-Submission/run_exec
  executable dir:      /rds/general/user/hz1420/home/apps/lammps_2109/bin
  mpi + exe command:    mpiexec lmp_omp -in f1_nvt.in
-------------------------------------------

PBS Job Status
-------------------------------------------
  Connection timed out
qstat: cannot connect to server pbs (errno=110)
-------------------------------------------

All files are synchonised.

Job Ready to Go
-------------------------------------------
  Job name       : f1_nvt
  ID             : 7190644.pbs
  Command        : mpiexec lmp_omp -in f1_nvt.in >> /rds/general/user/hz1420/home/GitHub/crystal_shape_control/Imperial-HPC-Job-Submission/LAMMPS/testcase/f1_nvt.out 2>&1
  Temporary dir  : /rds/general/user/hz1420/home/GitHub/crystal_shape_control/Imperial-HPC-Job-Submission/LAMMPS/testcase
  List of files  : total 99
-rw-r-----. 1 hz1420 hpc-nmh 25220 Jan 31 18:32 f1_nvt.data
-rw-------. 1 hz1420 hpc-nmh   353 Mar 11 02:02 f1_nvt.e7190644
-rwxr-xr-x. 1 hz1420 hpc-nmh   820 Mar 11 01:14 f1_nvt.in
-rw-------. 1 hz1420 hpc-nmh  3554 Mar 11 02:05 f1_nvt.o7190644
-rw-------. 1 hz1420 hpc-nmh  1343 Mar 11 02:05 f1_nvt.out
-rw-r--r--. 1 hz1420 hpc-nmh  1182 Mar 11 01:59 f1_nvt.qsub
-rw-r-----. 1 hz1420 hpc-nmh 13270 Jan 31 18:32 f1_nvt.settings
-rw-------. 1 hz1420 hpc-nmh 11270 Mar 11 02:03 Job_script
  Input script   :
# Basic settings
units          metal
atom_style     full
kspace_style   ewald 1e-4

# Geometry
dimension      3
boundary       p p p
read_data      "f1_nvt.data"

# FF coefficients
include        "f1_nvt.settings"
pair_modify    mix arithmetic

# Minimization
thermo_style   custom step temp press etotal epair ebond eangle edihed eimp
fix            rlx all box/relax tri 0.0
min_style      cg
minimize       0. 1e-7 5 50
write_data     "form1_min.data"

# NVT
thermo          100
thermo_style    custom step temp etotal epair emol press vol enthalpy
dump            2 all custom 100 f1_nvt.lammpstrj id mol type x y z ix iy iz
restart         1000 f1_nvt-step*.restart
velocity        all create 100 1000 dist gaussian rot yes mom yes
fix             1 all nvt temp 100 100 100
timestep        1
run             5000
-------------------------------------------

LAMMPS (29 Sep 2021 - Update 3)
  using 1 OpenMP thread(s) per MPI task
Reading data file ...
  triclinic box = (0.0000000 0.0000000 0.0000000) to (7.1250000 9.2200000 11.483417) with tilt (0.0000000 -1.6404672 0.0000000)
  2 by 3 by 4 MPI processor grid
  reading atoms ...
  80 atoms
  scanning bonds ...
  3 = max bonds/atom
  scanning angles ...
  6 = max angles/atom
  scanning dihedrals ...
  9 = max dihedrals/atom
  scanning impropers ...
  2 = max impropers/atom
  reading bonds ...
  80 bonds
  reading angles ...
  124 angles
  reading dihedrals ...
  176 dihedrals
  reading impropers ...
  48 impropers
Finding 1-2 1-3 1-4 neighbors ...
  special bond factors lj:    0        0        0       
  special bond factors coul:  0        0        0       
     4 = max # of 1-2 neighbors
     6 = max # of 1-3 neighbors
    12 = max # of 1-4 neighbors
    14 = max # of special neighbors
  special bonds CPU = 0.001 seconds
  read_data CPU = 0.046 seconds
Finding 1-2 1-3 1-4 neighbors ...
  special bond factors lj:    0        0        0.5     
  special bond factors coul:  0        0        0.8333333333333334
     4 = max # of 1-2 neighbors
     6 = max # of 1-3 neighbors
    12 = max # of 1-4 neighbors
    14 = max # of special neighbors
  special bonds CPU = 0.000 seconds
WARNING: Using 'neigh_modify every 1 delay 0 check yes' setting during minimization (src/min.cpp:188)
Ewald initialization ...
  using 12-bit tables for long-range coulomb (src/kspace.cpp:340)
  G vector (1/distance) = 0.22815098
  estimated absolute RMS force accuracy = 0.0014777304
  estimated relative force accuracy = 0.0001026227
  KSpace vectors: actual max1d max3d = 33 2 62
                  kxmax kymax kzmax  = 2 2 2
Neighbor list info ...
  update every 1 steps, delay 0 steps, check yes
  max neighbors/atom: 2000, page size: 100000
  master list distance cutoff = 14
  ghost atom cutoff = 14
  binsize = 7, bins = 2 2 2
  2 neighbor lists, perpetual/occasional/extra = 2 0 0
  (1) pair lj/mdf, perpetual
      attributes: half, newton on
      pair build: half/bin/newton/tri
      stencil: half/bin/3d/tri
      bin: standard
  (2) pair coul/long, perpetual, copy from (1)
      attributes: half, newton on
      pair build: copy
      stencil: none
      bin: none
Setting up cg style minimization ...
  Unit style    : metal
  Current step  : 0
WARNING: Energy due to 6 extra global DOFs will be included in minimizer energies
WARNING: Inconsistent image flags (src/domain.cpp:814)
WARNING: Bond/angle/dihedral extent > half of periodic box length (src/domain.cpp:935)
Per MPI rank memory allocation (min/avg/max) = 17.80 | 17.93 | 18.45 Mbytes
Step Temp Press TotEng E_pair E_bond E_angle E_dihed E_impro 
       0            0   -21615.827   -14.249389   -15.572851   0.40509466   0.27502934   0.63760639 0.0057317099 
       5            0   -20417.876   -14.262873    -15.56977      0.38824   0.27526875   0.63765759   0.00573069 
WARNING: Bond/angle/dihedral extent > half of periodic box length (src/domain.cpp:935)
Loop time of 0.003268 on 24 procs for 5 steps with 80 atoms

84.4% CPU use with 24 MPI tasks x 1 OpenMP threads

Minimization stats:
  Stopping criterion = max iterations
  Energy initial, next-to-last, final = 
     -14.2493886125326  -14.2603062946326  -14.2628726281073
  Force two-norm initial, final = 21.996578 20.886437
  Force max component initial, final = 18.601367 17.599491
  Final line search alpha, max atom move = 5.6177454e-06 9.8869460e-05
  Iterations, force evaluations = 5 5

MPI task timing breakdown:
Section |  min time  |  avg time  |  max time  |%varavg| %total
---------------------------------------------------------------
Pair    | 0.00037244 | 0.00057697 | 0.00084962 |   0.0 | 17.66
Bond    | 4.1896e-06 | 1.0263e-05 | 1.854e-05  |   0.0 |  0.31
Kspace  | 6.2122e-05 | 0.00033448 | 0.00054065 |   0.0 | 10.24
Neigh   | 0          | 0          | 0          |   0.0 |  0.00
Comm    | 0.00096585 | 0.0010105  | 0.0010549  |   0.1 | 30.92
Output  | 0.00017458 | 0.00017569 | 0.00019517 |   0.0 |  5.38
Modify  | 0          | 0          | 0          |   0.0 |  0.00
Other   |            | 0.00116    |            |       | 35.50

Nlocal:        3.33333 ave           5 max           2 min
Histogram: 2 0 0 16 0 0 2 0 0 4
Nghost:        3253.92 ave        3265 max        3235 min
Histogram: 4 0 0 0 0 2 4 6 4 4
Neighs:        2019.83 ave        3030 max        1210 min
Histogram: 2 0 0 16 0 0 2 0 0 4

Total # of neighbors = 48476
Ave neighs/atom = 605.95000
Ave special neighs/atom = 8.8000000
Neighbor list builds = 0
Dangerous builds = 0
System init for write_data ...
Ewald initialization ...
  using 12-bit tables for long-range coulomb (src/kspace.cpp:340)
  G vector (1/distance) = 0.22815997
  estimated absolute RMS force accuracy = 0.0014775948
  estimated relative force accuracy = 0.00010261328
  KSpace vectors: actual max1d max3d = 33 2 62
                  kxmax kymax kzmax  = 2 2 2
Ewald initialization ...
  using 12-bit tables for long-range coulomb (src/kspace.cpp:340)
  G vector (1/distance) = 0.22815997
  estimated absolute RMS force accuracy = 0.0014775948
  estimated relative force accuracy = 0.00010261328
  KSpace vectors: actual max1d max3d = 33 2 62
                  kxmax kymax kzmax  = 2 2 2
Setting up Verlet run ...
  Unit style    : metal
  Current step  : 5
  Time step     : 1
WARNING: Inconsistent image flags (src/domain.cpp:814)
WARNING: Bond/angle/dihedral extent > half of periodic box length (src/domain.cpp:935)
Per MPI rank memory allocation (min/avg/max) = 16.68 | 16.81 | 17.32 Mbytes
Step Temp TotEng E_pair E_mol Press Volume Enthalpy 
       5          100   -13.241723   -15.569775     1.306897   -18970.879     753.7559   -22.166714 
     100          nan          nan          nan          nan          nan     753.7559          nan 
     200          nan          nan          nan          nan          nan     753.7559          nan 
     300          nan          nan          nan          nan          nan     753.7559          nan 
     400          nan          nan          nan          nan          nan     753.7559          nan 
     500          nan          nan          nan          nan          nan     753.7559          nan 
     600          nan          nan          nan          nan          nan     753.7559          nan 
     700          nan          nan          nan          nan          nan     753.7559          nan 
     800          nan          nan          nan          nan          nan     753.7559          nan 
     900          nan          nan          nan          nan          nan     753.7559          nan 
ERROR on proc 0: Non-numeric atom coords - simulation unstable (src/OPENMP/domain_omp.cpp:58)
Last command: run             5000
Abort(1) on node 0 (rank 0 in comm 0): application called MPI_Abort(MPI_COMM_WORLD, 1) - process 0
ERROR on proc 2: Non-numeric atom coords - simulation unstable (src/OPENMP/domain_omp.cpp:58)
Last command: run             5000
ERROR on proc 7: Non-numeric atom coords - simulation unstable (src/OPENMP/domain_omp.cpp:58)
Last command: run             5000
ERROR on proc 11: Non-numeric atom coords - simulation unstable (src/OPENMP/domain_omp.cpp:58)
Last command: run             5000
ERROR on proc 21: Non-numeric atom coords - simulation unstable (src/OPENMP/domain_omp.cpp:58)
Last command: run             5000
ERROR on proc 1: Non-numeric atom coords - simulation unstable (src/OPENMP/domain_omp.cpp:58)
Last command: run             5000
Abort(1) on node 1 (rank 1 in comm 0): application called MPI_Abort(MPI_COMM_WORLD, 1) - process 1
Abort(1) on node 2 (rank 2 in comm 0): application called MPI_Abort(MPI_COMM_WORLD, 1) - process 2
ERROR on proc 4: Non-numeric atom coords - simulation unstable (src/OPENMP/domain_omp.cpp:58)
Last command: run             5000
Abort(1) on node 4 (rank 4 in comm 0): application called MPI_Abort(MPI_COMM_WORLD, 1) - process 4
Abort(1) on node 7 (rank 7 in comm 0): application called MPI_Abort(MPI_COMM_WORLD, 1) - process 7
Abort(1) on node 11 (rank 11 in comm 0): application called MPI_Abort(MPI_COMM_WORLD, 1) - process 11
ERROR on proc 13: Non-numeric atom coords - simulation unstable (src/OPENMP/domain_omp.cpp:58)
Last command: run             5000
ERROR on proc 19: Non-numeric atom coords - simulation unstable (src/OPENMP/domain_omp.cpp:58)
Last command: run             5000
Abort(1) on node 21 (rank 21 in comm 0): application called MPI_Abort(MPI_COMM_WORLD, 1) - process 21
ERROR on proc 22: Non-numeric atom coords - simulation unstable (src/OPENMP/domain_omp.cpp:58)
Last command: run             5000
ERROR on proc 23: Non-numeric atom coords - simulation unstable (src/OPENMP/domain_omp.cpp:58)
Last command: run             5000
ERROR on proc 3: Non-numeric atom coords - simulation unstable (src/OPENMP/domain_omp.cpp:58)
Last command: run             5000
Abort(1) on node 3 (rank 3 in comm 0): application called MPI_Abort(MPI_COMM_WORLD, 1) - process 3
ERROR on proc 5: Non-numeric atom coords - simulation unstable (src/OPENMP/domain_omp.cpp:58)
Last command: run             5000
Abort(1) on node 5 (rank 5 in comm 0): application called MPI_Abort(MPI_COMM_WORLD, 1) - process 5
ERROR on proc 6: Non-numeric atom coords - simulation unstable (src/OPENMP/domain_omp.cpp:58)
Last command: run             5000
ERROR on proc 8: Non-numeric atom coords - simulation unstable (src/OPENMP/domain_omp.cpp:58)
Last command: run             5000
Abort(1) on node 8 (rank 8 in comm 0): application called MPI_Abort(MPI_COMM_WORLD, 1) - process 8
ERROR on proc 9: Non-numeric atom coords - simulation unstable (src/OPENMP/domain_omp.cpp:58)
Last command: run             5000
Abort(1) on node 9 (rank 9 in comm 0): application called MPI_Abort(MPI_COMM_WORLD, 1) - process 9
ERROR on proc 10: Non-numeric atom coords - simulation unstable (src/OPENMP/domain_omp.cpp:58)
Last command: run             5000
Abort(1) on node 10 (rank 10 in comm 0): application called MPI_Abort(MPI_COMM_WORLD, 1) - process 10
ERROR on proc 12: Non-numeric atom coords - simulation unstable (src/OPENMP/domain_omp.cpp:58)
Last command: run             5000
Abort(1) on node 12 (rank 12 in comm 0): application called MPI_Abort(MPI_COMM_WORLD, 1) - process 12
Abort(1) on node 13 (rank 13 in comm 0): application called MPI_Abort(MPI_COMM_WORLD, 1) - process 13
ERROR on proc 14: Non-numeric atom coords - simulation unstable (src/OPENMP/domain_omp.cpp:58)
Last command: run             5000
Abort(1) on node 14 (rank 14 in comm 0): application called MPI_Abort(MPI_COMM_WORLD, 1) - process 14
ERROR on proc 15: Non-numeric atom coords - simulation unstable (src/OPENMP/domain_omp.cpp:58)
Last command: run             5000
Abort(1) on node 15 (rank 15 in comm 0): application called MPI_Abort(MPI_COMM_WORLD, 1) - process 15
ERROR on proc 16: Non-numeric atom coords - simulation unstable (src/OPENMP/domain_omp.cpp:58)
Last command: run             5000
Abort(1) on node 16 (rank 16 in comm 0): application called MPI_Abort(MPI_COMM_WORLD, 1) - process 16
ERROR on proc 17: Non-numeric atom coords - simulation unstable (src/OPENMP/domain_omp.cpp:58)
Last command: run             5000
Abort(1) on node 17 (rank 17 in comm 0): application called MPI_Abort(MPI_COMM_WORLD, 1) - process 17
ERROR on proc 18: Non-numeric atom coords - simulation unstable (src/OPENMP/domain_omp.cpp:58)
Last command: run             5000
Abort(1) on node 18 (rank 18 in comm 0): application called MPI_Abort(MPI_COMM_WORLD, 1) - process 18
Abort(1) on node 19 (rank 19 in comm 0): application called MPI_Abort(MPI_COMM_WORLD, 1) - process 19
ERROR on proc 20: Non-numeric atom coords - simulation unstable (src/OPENMP/domain_omp.cpp:58)
Last command: run             5000
Abort(1) on node 20 (rank 20 in comm 0): application called MPI_Abort(MPI_COMM_WORLD, 1) - process 20
Abort(1) on node 22 (rank 22 in comm 0): application called MPI_Abort(MPI_COMM_WORLD, 1) - process 22
Abort(1) on node 23 (rank 23 in comm 0): application called MPI_Abort(MPI_COMM_WORLD, 1) - process 23

DATE END   : Sat 11 Mar 02:05:20 GMT 2023
Script run_exec done.
--------------------------------------------

Post Processing Report
--------------------------------------------
Begining of post processing : Sat 11 Mar 02:05:20 GMT 2023
List of saved files
  TEMPORARY            SAVED
--------------------------------------------

Temporary Directory Disk Info
--------------------------------------------
  Temporary directory      : /rds/general/user/hz1420/home/GitHub/crystal_shape_control/Imperial-HPC-Job-Submission/LAMMPS/testcase

  Disk usage (df -h)
Filesystem      Size  Used Avail Use% Mounted on
rds              14P   13P  1.5P  90% /rds

  Usage by folders (du -m)
17	/rds/general/user/hz1420/home/GitHub/crystal_shape_control/Imperial-HPC-Job-Submission/LAMMPS/testcase

  Detailed file list (ls -l .)
    see /rds/general/user/hz1420/home/GitHub/crystal_shape_control/Imperial-HPC-Job-Submission/LAMMPS/testcase/*.o7190644.pbs file
--------------------------------------------

End of post processing : Sat 11 Mar 02:05:20 GMT 2023
Script post_proc done.
--------------------------------------------
