********************************************************************************
*                       GENERAL UTILITY LATTICE PROGRAM                        *
*                                 Julian Gale                                  *
*                       Curtin Institute for Computation                       *
*                    School of Molecular and Life Sciences                     *
*                    Curtin University, Western Australia                      *
********************************************************************************
* Version = 6.1.0 * Last modified =  22nd June 2022                            *
********************************************************************************
*  optimise     - perform optimisation run                                     *
*  conv         - constant volume calculation                                  *
*  property     - calculate properties for final geometry                      *
*  phonon       - calculate phonons for final geometry                         *
*  eigenvectors - output phonon eigenvectors                                   *
*  no4duplicate - do not duplicate torsions with wildcard potentials           *
*  molq         - molecule option activated, but with Coulomb terms retained   *
********************************************************************************

  Job Started  at 18:11.17 12th January    2023                               

  Number of CPUs =     2

  Host name      = nhpc101                                 


  Total number of configurations input =      1

********************************************************************************
*  Input for Configuration =   1                                               *
********************************************************************************

  Formula = O8H36N4C32                                                  

  Number of irreducible atoms/shells =      20


  Total number atoms/shells =      80

  Dimensionality = 3               :  Bulk   


  Symmetry :

  Crystal family                   :  Monoclinic  
  Crystal class  (Groth - 1921)    :  Monoclinic Prismatic                 

  Space group (centrosymmetric)    :  P 1 21/C 1      

  Non-standard setting of group    :  P 21/C          

  Patterson group                  :  P 2/m    

  Cartesian lattice vectors (Angstroms) :

        7.073000    0.000000    0.000000
        0.000000    9.166000    0.000000
       -5.455279    0.000000   11.432096

  Cell parameters (Angstroms/Degrees):

  a =       7.0730    alpha =  90.0000
  b =       9.1660    beta  = 115.5100
  c =      12.6670    gamma =  90.0000

  Initial cell volume =         741.155555 Angs**3

  Temperature of configuration =   0.00     K 

  Pressure of configuration =         0.000 GPa 

  Fractional coordinates of asymmetric unit :

--------------------------------------------------------------------------------
   No.  Atomic       x           y          z         Charge      Occupancy
        Label      (Frac)      (Frac)     (Frac)        (e)         (Frac)  
--------------------------------------------------------------------------------
      1 O1    c    0.058700 *  0.424890 *  0.721890 *  -0.49910    1.000000    
      2 H2    c    0.200100 *  0.464700 *  0.742400 *   0.41800    1.000000    
      3 O2    c    0.455500 *  0.992590 *  0.308540 *  -0.59310    1.000000    
      4 N1    c    0.787710 *  0.050160 *  0.339110 *  -0.47210    1.000000    
      5 H3    c    0.891800 *  0.040700 *  0.304900 *   0.31350    1.000000    
      6 C1    c    0.995700 *  0.331620 *  0.629220 *   0.09610    1.000000    
      7 C1    c    0.850400 *  0.142100 *  0.438130 *   0.03560    1.000000    
      8 C1    c    0.756800 *  0.142420 *  0.514740 *  -0.13450    1.000000    
      9 H1    c    0.628400 *  0.070200 *  0.501200 *   0.15300    1.000000    
     10 C1    c    0.829600 *  0.237940 *  0.609960 *  -0.15800    1.000000    
     11 H1    c    0.757800 *  0.236600 *  0.669600 *   0.14350    1.000000    
     12 C3    c    0.583200 *  0.896310 *  0.175600 *  -0.17810    1.000000    
     13 H4    c    0.431600 *  0.914700 *  0.103900 *   0.06870    1.000000    
     14 H4    c    0.706100 *  0.920200 *  0.149900 *   0.06870    1.000000    
     15 H4    c    0.591400 *  0.780900 *  0.197700 *   0.06870    1.000000    
     16 C1    c    0.092100 *  0.329080 *  0.553990 *  -0.15800    1.000000    
     17 H1    c    0.223400 *  0.400000 *  0.569100 *   0.14350    1.000000    
     18 C2    c    0.601700 *  0.984010 *  0.280250 *   0.66510    1.000000    
     19 C1    c    0.019400 *  0.234400 *  0.458940 *  -0.13450    1.000000    
     20 H1    c    0.092300 *  0.233600 *  0.399500 *   0.15300    1.000000    
--------------------------------------------------------------------------------



  Molecule list generated from bond lengths :

  Total number of molecules =     4

--------------------------------------------------------------------------------
Molecule No./:  Atoms
Periodicity  :  
--------------------------------------------------------------------------------
     1  0    : O1   c     1 H2   c     5 O2   c     9 N1   c    13 H3   c    17
             : C1   c    21 C1   c    25 C1   c    29 H1   c    33 C1   c    37
             : H1   c    41 C3   c    45 H4   c    49 H4   c    53 H4   c    57
             : C1   c    61 H1   c    65 C2   c    69 C1   c    73 H1   c    77
     2  0    : O1   c     2 H2   c     6 O2   c    10 N1   c    14 H3   c    18
             : C1   c    22 C1   c    26 C1   c    30 H1   c    34 C1   c    38
             : H1   c    42 C3   c    46 H4   c    50 H4   c    54 H4   c    58
             : C1   c    62 H1   c    66 C2   c    70 C1   c    74 H1   c    78
     3  0    : O1   c     3 H2   c     7 O2   c    11 N1   c    15 H3   c    19
             : C1   c    23 C1   c    27 C1   c    31 H1   c    35 C1   c    39
             : H1   c    43 C3   c    47 H4   c    51 H4   c    55 H4   c    59
             : C1   c    63 H1   c    67 C2   c    71 C1   c    75 H1   c    79
     4  0    : O1   c     4 H2   c     8 O2   c    12 N1   c    16 H3   c    20
             : C1   c    24 C1   c    28 C1   c    32 H1   c    36 C1   c    40
             : H1   c    44 C3   c    48 H4   c    52 H4   c    56 H4   c    60
             : C1   c    64 H1   c    68 C2   c    72 C1   c    76 H1   c    80
--------------------------------------------------------------------------------

  Brillouin zone sampling points :

--------------------------------------------------------------------------------
  Point number          x          y          z            Weight
--------------------------------------------------------------------------------
        1           0.000000   0.000000   0.000000     0.50000000
        2           0.500000   0.500000   0.500000     0.50000000
--------------------------------------------------------------------------------


********************************************************************************
*  General input information                                                   *
********************************************************************************

  Species output for all configurations : 

--------------------------------------------------------------------------------
  Species    Type    Atomic    Atomic    Charge       Radii (Angs)     Library
                     Number     Mass       (e)     Cova   Ionic  VDW   Symbol
--------------------------------------------------------------------------------
    C1       Core        6      12.01   0.000000   0.770  0.000  1.530 C_ca     
    C2       Core        6      12.01   0.000000   0.770  0.000  1.530 C_c      
    C3       Core        6      12.01   0.000000   0.770  0.000  1.530 C_c3     
    H1       Core        1       1.01   0.000000   0.370  0.000  1.080 H_ha     
    H2       Core        1       1.01   0.000000   0.370  0.000  1.080 H_ho     
    H3       Core        1       1.01   0.000000   0.370  0.000  1.080 H_hn     
    H4       Core        1       1.01   0.000000   0.370  0.000  1.080 H_hc     
    O1       Core        8      16.00   0.000000   0.730  0.000  1.360 O_oh     
    O2       Core        8      16.00   0.000000   0.730  0.000  1.360 O_o      
    N1       Core        7      14.01   0.000000   0.750  0.000  1.480 N_n      
    X        Core      107       0.00   0.000000   0.000  0.000  0.000          
--------------------------------------------------------------------------------


  Lattice summation method               =    Ewald          (3-D)
                                         =    Parry          (2-D)
                                         =    Saunders et al (1-D)
  Accuracy factor for lattice sums       =   12.000


  Analytic derivatives to be used

  Time limit = Infinity

  Maximum range for interatomic potentials =        10.000000 Angstroms

  Taper potentials to zero over   2.0000 Angstroms using M-D-F

  General interatomic potentials :

--------------------------------------------------------------------------------
Atom  Types   Potential      Parameter       Value         Units   Cutoffs(Ang)
  1     2                                                            Min /  Max 
--------------------------------------------------------------------------------
H1   c H1   c Lenn/es       Lennard epsilon 0.65046648E-03eV        3Bond 12.000
                            Lennard sigma/m  2.9180000    Ang       
                            Exponent m        12          None
                            Exponent n         6          None
--------------------------------------------------------------------------------
H1   c H4   c Lenn/es       Lennard epsilon 0.66547098E-03eV        3Bond 12.000
                            Lennard sigma/m  2.9460000    Ang       
                            Exponent m        12          None
                            Exponent n         6          None
--------------------------------------------------------------------------------
H4   c H4   c Lenn/es       Lennard epsilon 0.68082158E-03eV        3Bond 12.000
                            Lennard sigma/m  2.9740000    Ang       
                            Exponent m        12          None
                            Exponent n         6          None
--------------------------------------------------------------------------------
H1   c H3   c Lenn/es       Lennard epsilon 0.66547098E-03eV        3Bond 12.000
                            Lennard sigma/m  2.0590000    Ang       
                            Exponent m        12          None
                            Exponent n         6          None
--------------------------------------------------------------------------------
H3   c H4   c Lenn/es       Lennard epsilon 0.68082158E-03eV        3Bond 12.000
                            Lennard sigma/m  2.0870000    Ang       
                            Exponent m        12          None
                            Exponent n         6          None
--------------------------------------------------------------------------------
H3   c H3   c Lenn/es       Lennard epsilon 0.68082158E-03eV        3Bond 12.000
                            Lennard sigma/m  1.2000000    Ang       
                            Exponent m        12          None
                            Exponent n         6          None
--------------------------------------------------------------------------------
H1   c H2   c Lenn/es       Lennard epsilon  0.0000000    eV        3Bond 12.000
                            Lennard sigma/m  1.4590000    Ang       
                            Exponent m        12          None
                            Exponent n         6          None
--------------------------------------------------------------------------------
H2   c H4   c Lenn/es       Lennard epsilon  0.0000000    eV        3Bond 12.000
                            Lennard sigma/m  1.4870000    Ang       
                            Exponent m        12          None
                            Exponent n         6          None
--------------------------------------------------------------------------------
H2   c H3   c Lenn/es       Lennard epsilon  0.0000000    eV        3Bond 12.000
                            Lennard sigma/m 0.60000000    Ang       
                            Exponent m        12          None
                            Exponent n         6          None
--------------------------------------------------------------------------------
H2   c H2   c Lenn/es       Lennard epsilon  0.0000000    eV        3Bond 12.000
                            Lennard sigma/m  0.0000000    Ang       
                            Exponent m        12          None
                            Exponent n         6          None
--------------------------------------------------------------------------------
H1   c O2   c Lenn/es       Lennard epsilon 0.24338227E-02eV        3Bond 12.000
                            Lennard sigma/m  3.1202000    Ang       
                            Exponent m        12          None
                            Exponent n         6          None
--------------------------------------------------------------------------------
H4   c O2   c Lenn/es       Lennard epsilon 0.24899644E-02eV        3Bond 12.000
                            Lennard sigma/m  3.1482000    Ang       
                            Exponent m        12          None
                            Exponent n         6          None
--------------------------------------------------------------------------------
H3   c O2   c Lenn/es       Lennard epsilon 0.24899644E-02eV        3Bond 12.000
                            Lennard sigma/m  2.2612000    Ang       
                            Exponent m        12          None
                            Exponent n         6          None
--------------------------------------------------------------------------------
H2   c O2   c Lenn/es       Lennard epsilon  0.0000000    eV        3Bond 12.000
                            Lennard sigma/m  1.6612000    Ang       
                            Exponent m        12          None
                            Exponent n         6          None
--------------------------------------------------------------------------------
O2   c O2   c Lenn/es       Lennard epsilon 0.91065307E-02eV        3Bond 12.000
                            Lennard sigma/m  3.3224000    Ang       
                            Exponent m        12          None
                            Exponent n         6          None
--------------------------------------------------------------------------------
H1   c O1   c Lenn/es       Lennard epsilon 0.24361395E-02eV        3Bond 12.000
                            Lennard sigma/m  3.1800000    Ang       
                            Exponent m        12          None
                            Exponent n         6          None
--------------------------------------------------------------------------------
H4   c O1   c Lenn/es       Lennard epsilon 0.24923347E-02eV        3Bond 12.000
                            Lennard sigma/m  3.2080000    Ang       
                            Exponent m        12          None
                            Exponent n         6          None
--------------------------------------------------------------------------------
H3   c O1   c Lenn/es       Lennard epsilon 0.24923347E-02eV        3Bond 12.000
                            Lennard sigma/m  2.3210000    Ang       
                            Exponent m        12          None
                            Exponent n         6          None
--------------------------------------------------------------------------------
H2   c O1   c Lenn/es       Lennard epsilon  0.0000000    eV        3Bond 12.000
                            Lennard sigma/m  1.7210000    Ang       
                            Exponent m        12          None
                            Exponent n         6          None
--------------------------------------------------------------------------------
O1   c O2   c Lenn/es       Lennard epsilon 0.91151995E-02eV        3Bond 12.000
                            Lennard sigma/m  3.3822000    Ang       
                            Exponent m        12          None
                            Exponent n         6          None
--------------------------------------------------------------------------------
O1   c O1   c Lenn/es       Lennard epsilon 0.91238765E-02eV        3Bond 12.000
                            Lennard sigma/m  3.4420000    Ang       
                            Exponent m        12          None
                            Exponent n         6          None
--------------------------------------------------------------------------------
H1   c C2   c Lenn/es       Lennard epsilon 0.15575017E-02eV        3Bond 12.000
                            Lennard sigma/m  3.3670000    Ang       
                            Exponent m        12          None
                            Exponent n         6          None
--------------------------------------------------------------------------------
H4   c C2   c Lenn/es       Lennard epsilon 0.15934290E-02eV        3Bond 12.000
                            Lennard sigma/m  3.3950000    Ang       
                            Exponent m        12          None
                            Exponent n         6          None
--------------------------------------------------------------------------------
H3   c C2   c Lenn/es       Lennard epsilon 0.15934290E-02eV        3Bond 12.000
                            Lennard sigma/m  2.5080000    Ang       
                            Exponent m        12          None
                            Exponent n         6          None
--------------------------------------------------------------------------------
H2   c C2   c Lenn/es       Lennard epsilon  0.0000000    eV        3Bond 12.000
                            Lennard sigma/m  1.9080000    Ang       
                            Exponent m        12          None
                            Exponent n         6          None
--------------------------------------------------------------------------------
C2   c O2   c Lenn/es       Lennard epsilon 0.58276376E-02eV        3Bond 12.000
                            Lennard sigma/m  3.5692000    Ang       
                            Exponent m        12          None
                            Exponent n         6          None
--------------------------------------------------------------------------------
C2   c O1   c Lenn/es       Lennard epsilon 0.58331851E-02eV        3Bond 12.000
                            Lennard sigma/m  3.6290000    Ang       
                            Exponent m        12          None
                            Exponent n         6          None
--------------------------------------------------------------------------------
C2   c C2   c Lenn/es       Lennard epsilon 0.37293412E-02eV        3Bond 12.000
                            Lennard sigma/m  3.8160000    Ang       
                            Exponent m        12          None
                            Exponent n         6          None
--------------------------------------------------------------------------------
H1   c C3   c Lenn/es       Lennard epsilon 0.17566610E-02eV        3Bond 12.000
                            Lennard sigma/m  3.3670000    Ang       
                            Exponent m        12          None
                            Exponent n         6          None
--------------------------------------------------------------------------------
H4   c C3   c Lenn/es       Lennard epsilon 0.17971824E-02eV        3Bond 12.000
                            Lennard sigma/m  3.3950000    Ang       
                            Exponent m        12          None
                            Exponent n         6          None
--------------------------------------------------------------------------------
H3   c C3   c Lenn/es       Lennard epsilon 0.17971824E-02eV        3Bond 12.000
                            Lennard sigma/m  2.5080000    Ang       
                            Exponent m        12          None
                            Exponent n         6          None
--------------------------------------------------------------------------------
H2   c C3   c Lenn/es       Lennard epsilon  0.0000000    eV        3Bond 12.000
                            Lennard sigma/m  1.9080000    Ang       
                            Exponent m        12          None
                            Exponent n         6          None
--------------------------------------------------------------------------------
C3   c O2   c Lenn/es       Lennard epsilon 0.65728235E-02eV        3Bond 12.000
                            Lennard sigma/m  3.5692000    Ang       
                            Exponent m        12          None
                            Exponent n         6          None
--------------------------------------------------------------------------------
C3   c O1   c Lenn/es       Lennard epsilon 0.65790804E-02eV        3Bond 12.000
                            Lennard sigma/m  3.6290000    Ang       
                            Exponent m        12          None
                            Exponent n         6          None
--------------------------------------------------------------------------------
C2   c C3   c Lenn/es       Lennard epsilon 0.42062158E-02eV        3Bond 12.000
                            Lennard sigma/m  3.8160000    Ang       
                            Exponent m        12          None
                            Exponent n         6          None
--------------------------------------------------------------------------------
C3   c C3   c Lenn/es       Lennard epsilon 0.47440689E-02eV        3Bond 12.000
                            Lennard sigma/m  3.8160000    Ang       
                            Exponent m        12          None
                            Exponent n         6          None
--------------------------------------------------------------------------------
H1   c C1   c Lenn/es       Lennard epsilon 0.15575017E-02eV        3Bond 12.000
                            Lennard sigma/m  3.3670000    Ang       
                            Exponent m        12          None
                            Exponent n         6          None
--------------------------------------------------------------------------------
H4   c C1   c Lenn/es       Lennard epsilon 0.15934290E-02eV        3Bond 12.000
                            Lennard sigma/m  3.3950000    Ang       
                            Exponent m        12          None
                            Exponent n         6          None
--------------------------------------------------------------------------------
H3   c C1   c Lenn/es       Lennard epsilon 0.15934290E-02eV        3Bond 12.000
                            Lennard sigma/m  2.5080000    Ang       
                            Exponent m        12          None
                            Exponent n         6          None
--------------------------------------------------------------------------------
H2   c C1   c Lenn/es       Lennard epsilon  0.0000000    eV        3Bond 12.000
                            Lennard sigma/m  1.9080000    Ang       
                            Exponent m        12          None
                            Exponent n         6          None
--------------------------------------------------------------------------------
C1   c O2   c Lenn/es       Lennard epsilon 0.58276376E-02eV        3Bond 12.000
                            Lennard sigma/m  3.5692000    Ang       
                            Exponent m        12          None
                            Exponent n         6          None
--------------------------------------------------------------------------------
C1   c O1   c Lenn/es       Lennard epsilon 0.58331851E-02eV        3Bond 12.000
                            Lennard sigma/m  3.6290000    Ang       
                            Exponent m        12          None
                            Exponent n         6          None
--------------------------------------------------------------------------------
C1   c C2   c Lenn/es       Lennard epsilon 0.37293412E-02eV        3Bond 12.000
                            Lennard sigma/m  3.8160000    Ang       
                            Exponent m        12          None
                            Exponent n         6          None
--------------------------------------------------------------------------------
C1   c C3   c Lenn/es       Lennard epsilon 0.42062158E-02eV        3Bond 12.000
                            Lennard sigma/m  3.8160000    Ang       
                            Exponent m        12          None
                            Exponent n         6          None
--------------------------------------------------------------------------------
C1   c C1   c Lenn/es       Lennard epsilon 0.37293412E-02eV        3Bond 12.000
                            Lennard sigma/m  3.8160000    Ang       
                            Exponent m        12          None
                            Exponent n         6          None
--------------------------------------------------------------------------------
H1   c N1   c Lenn/es       Lennard epsilon 0.21897965E-02eV        3Bond 12.000
                            Lennard sigma/m  3.2830000    Ang       
                            Exponent m        12          None
                            Exponent n         6          None
--------------------------------------------------------------------------------
H4   c N1   c Lenn/es       Lennard epsilon 0.22403091E-02eV        3Bond 12.000
                            Lennard sigma/m  3.3110000    Ang       
                            Exponent m        12          None
                            Exponent n         6          None
--------------------------------------------------------------------------------
H3   c N1   c Lenn/es       Lennard epsilon 0.22403091E-02eV        3Bond 12.000
                            Lennard sigma/m  2.4240000    Ang       
                            Exponent m        12          None
                            Exponent n         6          None
--------------------------------------------------------------------------------
H2   c N1   c Lenn/es       Lennard epsilon  0.0000000    eV        3Bond 12.000
                            Lennard sigma/m  1.8240000    Ang       
                            Exponent m        12          None
                            Exponent n         6          None
--------------------------------------------------------------------------------
N1   c O2   c Lenn/es       Lennard epsilon 0.81934682E-02eV        3Bond 12.000
                            Lennard sigma/m  3.4852000    Ang       
                            Exponent m        12          None
                            Exponent n         6          None
--------------------------------------------------------------------------------
N1   c O1   c Lenn/es       Lennard epsilon 0.82012678E-02eV        3Bond 12.000
                            Lennard sigma/m  3.5450000    Ang       
                            Exponent m        12          None
                            Exponent n         6          None
--------------------------------------------------------------------------------
C2   c N1   c Lenn/es       Lennard epsilon 0.52433319E-02eV        3Bond 12.000
                            Lennard sigma/m  3.7320000    Ang       
                            Exponent m        12          None
                            Exponent n         6          None
--------------------------------------------------------------------------------
C3   c N1   c Lenn/es       Lennard epsilon 0.59138021E-02eV        3Bond 12.000
                            Lennard sigma/m  3.7320000    Ang       
                            Exponent m        12          None
                            Exponent n         6          None
--------------------------------------------------------------------------------
C1   c N1   c Lenn/es       Lennard epsilon 0.52433319E-02eV        3Bond 12.000
                            Lennard sigma/m  3.7320000    Ang       
                            Exponent m        12          None
                            Exponent n         6          None
--------------------------------------------------------------------------------
N1   c N1   c Lenn/es       Lennard epsilon 0.73719534E-02eV        3Bond 12.000
                            Lennard sigma/m  3.6480000    Ang       
                            Exponent m        12          None
                            Exponent n         6          None
--------------------------------------------------------------------------------

  Intramolecular potentials :

--------------------------------------------------------------------------------
Atom  Types   Potential      Parameter       Value         Units   Cutoffs(Ang)
  1     2                                                            Min /  Max 
--------------------------------------------------------------------------------
C2   c C2   c Harmonic      Harmonic k2      25.160043    eV*Ang^-2 0.000 1 Bond
                            Harmonic r0      1.5500000    Ang       
                            Harmonic k3      0.0000000    eV*Ang^-3 
                            Harmonic k4      0.0000000    eV*Ang^-4 
--------------------------------------------------------------------------------
C2   c C3   c Harmonic      Harmonic k2      28.473086    eV*Ang^-2 0.000 1 Bond
                            Harmonic r0      1.5080000    Ang       
                            Harmonic k3      0.0000000    eV*Ang^-3 
                            Harmonic k4      0.0000000    eV*Ang^-4 
--------------------------------------------------------------------------------
C1   c C2   c Harmonic      Harmonic k2      30.329084    eV*Ang^-2 0.000 1 Bond
                            Harmonic r0      1.4870000    Ang       
                            Harmonic k3      0.0000000    eV*Ang^-3 
                            Harmonic k4      0.0000000    eV*Ang^-4 
--------------------------------------------------------------------------------
H1   c C2   c Harmonic      Harmonic k2      28.195554    eV*Ang^-2 0.000 1 Bond
                            Harmonic r0      1.1010000    Ang       
                            Harmonic k3      0.0000000    eV*Ang^-3 
                            Harmonic k4      0.0000000    eV*Ang^-4 
--------------------------------------------------------------------------------
C2   c N1   c Harmonic      Harmonic k2      41.473743    eV*Ang^-2 0.000 1 Bond
                            Harmonic r0      1.3450000    Ang       
                            Harmonic k3      0.0000000    eV*Ang^-3 
                            Harmonic k4      0.0000000    eV*Ang^-4 
--------------------------------------------------------------------------------
C2   c O2   c Harmonic      Harmonic k2      56.200304    eV*Ang^-2 0.000 1 Bond
                            Harmonic r0      1.2140000    Ang       
                            Harmonic k3      0.0000000    eV*Ang^-3 
                            Harmonic k4      0.0000000    eV*Ang^-4 
--------------------------------------------------------------------------------
C2   c O1   c Harmonic      Harmonic k2      40.450342    eV*Ang^-2 0.000 1 Bond
                            Harmonic r0      1.3060000    Ang       
                            Harmonic k3      0.0000000    eV*Ang^-3 
                            Harmonic k4      0.0000000    eV*Ang^-4 
--------------------------------------------------------------------------------
C3   c C3   c Harmonic      Harmonic k2      26.287519    eV*Ang^-2 0.000 1 Bond
                            Harmonic r0      1.5350000    Ang       
                            Harmonic k3      0.0000000    eV*Ang^-3 
                            Harmonic k4      0.0000000    eV*Ang^-4 
--------------------------------------------------------------------------------
C1   c C3   c Harmonic      Harmonic k2      28.056788    eV*Ang^-2 0.000 1 Bond
                            Harmonic r0      1.5130000    Ang       
                            Harmonic k3      0.0000000    eV*Ang^-3 
                            Harmonic k4      0.0000000    eV*Ang^-4 
--------------------------------------------------------------------------------
H4   c C3   c Harmonic      Harmonic k2      29.253646    eV*Ang^-2 0.000 1 Bond
                            Harmonic r0      1.0920000    Ang       
                            Harmonic k3      0.0000000    eV*Ang^-3 
                            Harmonic k4      0.0000000    eV*Ang^-4 
--------------------------------------------------------------------------------
C3   c N1   c Harmonic      Harmonic k2      28.672562    eV*Ang^-2 0.000 1 Bond
                            Harmonic r0      1.4600000    Ang       
                            Harmonic k3      0.0000000    eV*Ang^-3 
                            Harmonic k4      0.0000000    eV*Ang^-4 
--------------------------------------------------------------------------------
C3   c O2   c Harmonic      Harmonic k2      36.651618    eV*Ang^-2 0.000 1 Bond
                            Harmonic r0      1.3350000    Ang       
                            Harmonic k3      0.0000000    eV*Ang^-3 
                            Harmonic k4      0.0000000    eV*Ang^-4 
--------------------------------------------------------------------------------
C3   c O1   c Harmonic      Harmonic k2      27.241536    eV*Ang^-2 0.000 1 Bond
                            Harmonic r0      1.4260000    Ang       
                            Harmonic k3      0.0000000    eV*Ang^-3 
                            Harmonic k4      0.0000000    eV*Ang^-4 
--------------------------------------------------------------------------------
C1   c C1   c Harmonic      Harmonic k2      41.491089    eV*Ang^-2 0.000 1 Bond
                            Harmonic r0      1.3870000    Ang       
                            Harmonic k3      0.0000000    eV*Ang^-3 
                            Harmonic k4      0.0000000    eV*Ang^-4 
--------------------------------------------------------------------------------
H1   c C1   c Harmonic      Harmonic k2      29.860748    eV*Ang^-2 0.000 1 Bond
                            Harmonic r0      1.0870000    Ang       
                            Harmonic k3      0.0000000    eV*Ang^-3 
                            Harmonic k4      0.0000000    eV*Ang^-4 
--------------------------------------------------------------------------------
C1   c N1   c Harmonic      Harmonic k2      32.289156    eV*Ang^-2 0.000 1 Bond
                            Harmonic r0      1.4220000    Ang       
                            Harmonic k3      0.0000000    eV*Ang^-3 
                            Harmonic k4      0.0000000    eV*Ang^-4 
--------------------------------------------------------------------------------
C1   c O2   c Harmonic      Harmonic k2      45.072991    eV*Ang^-2 0.000 1 Bond
                            Harmonic r0      1.2750000    Ang       
                            Harmonic k3      0.0000000    eV*Ang^-3 
                            Harmonic k4      0.0000000    eV*Ang^-4 
--------------------------------------------------------------------------------
C1   c O1   c Harmonic      Harmonic k2      33.486014    eV*Ang^-2 0.000 1 Bond
                            Harmonic r0      1.3620000    Ang       
                            Harmonic k3      0.0000000    eV*Ang^-3 
                            Harmonic k4      0.0000000    eV*Ang^-4 
--------------------------------------------------------------------------------
H3   c N1   c Harmonic      Harmonic k2      35.576180    eV*Ang^-2 0.000 1 Bond
                            Harmonic r0      1.0090000    Ang       
                            Harmonic k3      0.0000000    eV*Ang^-3 
                            Harmonic k4      0.0000000    eV*Ang^-4 
--------------------------------------------------------------------------------
H2   c O2   c Harmonic      Harmonic k2      31.040260    eV*Ang^-2 0.000 1 Bond
                            Harmonic r0     0.98100000    Ang       
                            Harmonic k3      0.0000000    eV*Ang^-3 
                            Harmonic k4      0.0000000    eV*Ang^-4 
--------------------------------------------------------------------------------
H2   c O1   c Harmonic      Harmonic k2      32.054988    eV*Ang^-2 0.000 1 Bond
                            Harmonic r0     0.97400000    Ang       
                            Harmonic k3      0.0000000    eV*Ang^-3 
                            Harmonic k4      0.0000000    eV*Ang^-4 
--------------------------------------------------------------------------------
N1   c N1   c Harmonic      Harmonic k2      40.736547    eV*Ang^-2 0.000 1 Bond
                            Harmonic r0      1.3900000    Ang       
                            Harmonic k3      0.0000000    eV*Ang^-3 
                            Harmonic k4      0.0000000    eV*Ang^-4 
--------------------------------------------------------------------------------
N1   c O2   c Harmonic      Harmonic k2      56.078884    eV*Ang^-2 0.000 1 Bond
                            Harmonic r0      1.2640000    Ang       
                            Harmonic k3      0.0000000    eV*Ang^-3 
                            Harmonic k4      0.0000000    eV*Ang^-4 
--------------------------------------------------------------------------------
N1   c O1   c Harmonic      Harmonic k2      34.292593    eV*Ang^-2 0.000 1 Bond
                            Harmonic r0      1.4100000    Ang       
                            Harmonic k3      0.0000000    eV*Ang^-3 
                            Harmonic k4      0.0000000    eV*Ang^-4 
--------------------------------------------------------------------------------
O2   c O2   c Harmonic      Harmonic k2      33.329902    eV*Ang^-2 0.000 1 Bond
                            Harmonic r0      1.4300000    Ang       
                            Harmonic k3      0.0000000    eV*Ang^-3 
                            Harmonic k4      0.0000000    eV*Ang^-4 
--------------------------------------------------------------------------------
O1   c O2   c Harmonic      Harmonic k2      25.550323    eV*Ang^-2 0.000 1 Bond
                            Harmonic r0      1.5170000    Ang       
                            Harmonic k3      0.0000000    eV*Ang^-3 
                            Harmonic k4      0.0000000    eV*Ang^-4 
--------------------------------------------------------------------------------
O1   c O1   c Harmonic      Harmonic k2      29.531178    eV*Ang^-2 0.000 1 Bond
                            Harmonic r0      1.4690000    Ang       
                            Harmonic k3      0.0000000    eV*Ang^-3 
                            Harmonic k4      0.0000000    eV*Ang^-4 
--------------------------------------------------------------------------------
X    c X    c Coulomb_sub   Coulomb sub      1.0000000    None      1-4only 7.00
--------------------------------------------------------------------------------

  Intramolecular Three-body potentials :

--------------------------------------------------------------------------------
  Atoms       Potential      Parameter       Value         Units   Cutoffs(Ang)
  1 / 2 / 3                                                          Min /  Max 
--------------------------------------------------------------------------------
C2    core    Harmonic      Three-body cnst  5.4032082    eV*rad^-2 0.000 1 Bond
C2    core                  Three-body angl  111.68000    degrees   0.000 1 Bond
C2    core                  Three-body k4    0.0000000    eV*rad^-4 0.000 1 Bond
                            Three-body k3    0.0000000    eV*rad^-3 
--------------------------------------------------------------------------------
C2    core    Harmonic      Three-body cnst  5.3511709    eV*rad^-2 0.000 1 Bond
C2    core                  Three-body angl  116.86000    degrees   0.000 1 Bond
C3    core                  Three-body k4    0.0000000    eV*rad^-4 0.000 1 Bond
                            Three-body k3    0.0000000    eV*rad^-3 
--------------------------------------------------------------------------------
C2    core    Harmonic      Three-body cnst  3.8854531    eV*rad^-2 0.000 1 Bond
H1    core                  Three-body angl  115.43000    degrees   0.000 1 Bond
C2    core                  Three-body k4    0.0000000    eV*rad^-4 0.000 1 Bond
                            Three-body k3    0.0000000    eV*rad^-3 
--------------------------------------------------------------------------------
C2    core    Harmonic      Three-body cnst  3.8681073    eV*rad^-2 0.000 1 Bond
H4    core                  Three-body angl  117.08000    degrees   0.000 1 Bond
C2    core                  Three-body k4    0.0000000    eV*rad^-4 0.000 1 Bond
                            Three-body k3    0.0000000    eV*rad^-3 
--------------------------------------------------------------------------------
C2    core    Harmonic      Three-body cnst  6.0623476    eV*rad^-2 0.000 1 Bond
C2    core                  Three-body angl  104.81000    degrees   0.000 1 Bond
N1    core                  Three-body k4    0.0000000    eV*rad^-4 0.000 1 Bond
                            Three-body k3    0.0000000    eV*rad^-3 
--------------------------------------------------------------------------------
C2    core    Harmonic      Three-body cnst  5.7934881    eV*rad^-2 0.000 1 Bond
C2    core                  Three-body angl  122.34000    degrees   0.000 1 Bond
O2    core                  Three-body k4    0.0000000    eV*rad^-4 0.000 1 Bond
                            Three-body k3    0.0000000    eV*rad^-3 
--------------------------------------------------------------------------------
C2    core    Harmonic      Three-body cnst  5.9149085    eV*rad^-2 0.000 1 Bond
C2    core                  Three-body angl  113.23000    degrees   0.000 1 Bond
O1    core                  Three-body k4    0.0000000    eV*rad^-4 0.000 1 Bond
                            Three-body k3    0.0000000    eV*rad^-3 
--------------------------------------------------------------------------------
C2    core    Harmonic      Three-body cnst  5.4465727    eV*rad^-2 0.000 1 Bond
C3    core                  Three-body angl  116.05000    degrees   0.000 1 Bond
C3    core                  Three-body k4    0.0000000    eV*rad^-4 0.000 1 Bond
                            Three-body k3    0.0000000    eV*rad^-3 
--------------------------------------------------------------------------------
C2    core    Harmonic      Three-body cnst  5.4032082    eV*rad^-2 0.000 1 Bond
C1    core                  Three-body angl  119.53000    degrees   0.000 1 Bond
C3    core                  Three-body k4    0.0000000    eV*rad^-4 0.000 1 Bond
                            Three-body k3    0.0000000    eV*rad^-3 
--------------------------------------------------------------------------------
C2    core    Harmonic      Three-body cnst  3.9895277    eV*rad^-2 0.000 1 Bond
H1    core                  Three-body angl  115.22000    degrees   0.000 1 Bond
C3    core                  Three-body k4    0.0000000    eV*rad^-4 0.000 1 Bond
                            Three-body k3    0.0000000    eV*rad^-3 
--------------------------------------------------------------------------------
C2    core    Harmonic      Three-body cnst  5.8888899    eV*rad^-2 0.000 1 Bond
C3    core                  Three-body angl  115.15000    degrees   0.000 1 Bond
N1    core                  Three-body k4    0.0000000    eV*rad^-4 0.000 1 Bond
                            Three-body k3    0.0000000    eV*rad^-3 
--------------------------------------------------------------------------------
C2    core    Harmonic      Three-body cnst  5.8975628    eV*rad^-2 0.000 1 Bond
C3    core                  Three-body angl  123.11000    degrees   0.000 1 Bond
O2    core                  Three-body k4    0.0000000    eV*rad^-4 0.000 1 Bond
                            Three-body k3    0.0000000    eV*rad^-3 
--------------------------------------------------------------------------------
C2    core    Harmonic      Three-body cnst  6.0536747    eV*rad^-2 0.000 1 Bond
C3    core                  Three-body angl  112.20000    degrees   0.000 1 Bond
O1    core                  Three-body k4    0.0000000    eV*rad^-4 0.000 1 Bond
                            Three-body k3    0.0000000    eV*rad^-3 
--------------------------------------------------------------------------------
C2    core    Harmonic      Three-body cnst  5.4465727    eV*rad^-2 0.000 1 Bond
C1    core                  Three-body angl  119.53000    degrees   0.000 1 Bond
C1    core                  Three-body k4    0.0000000    eV*rad^-4 0.000 1 Bond
                            Three-body k3    0.0000000    eV*rad^-3 
--------------------------------------------------------------------------------
C2    core    Harmonic      Three-body cnst  4.0589108    eV*rad^-2 0.000 1 Bond
H1    core                  Three-body angl  114.12000    degrees   0.000 1 Bond
C1    core                  Three-body k4    0.0000000    eV*rad^-4 0.000 1 Bond
                            Three-body k3    0.0000000    eV*rad^-3 
--------------------------------------------------------------------------------
C2    core    Harmonic      Three-body cnst  6.0189832    eV*rad^-2 0.000 1 Bond
C1    core                  Three-body angl  112.03000    degrees   0.000 1 Bond
N1    core                  Three-body k4    0.0000000    eV*rad^-4 0.000 1 Bond
                            Three-body k3    0.0000000    eV*rad^-3 
--------------------------------------------------------------------------------
C2    core    Harmonic      Three-body cnst  5.9582730    eV*rad^-2 0.000 1 Bond
C1    core                  Three-body angl  123.44000    degrees   0.000 1 Bond
O2    core                  Three-body k4    0.0000000    eV*rad^-4 0.000 1 Bond
                            Three-body k3    0.0000000    eV*rad^-3 
--------------------------------------------------------------------------------
C2    core    Harmonic      Three-body cnst  6.0276561    eV*rad^-2 0.000 1 Bond
C1    core                  Three-body angl  115.46000    degrees   0.000 1 Bond
O1    core                  Three-body k4    0.0000000    eV*rad^-4 0.000 1 Bond
                            Three-body k3    0.0000000    eV*rad^-3 
--------------------------------------------------------------------------------
C2    core    Harmonic      Three-body cnst  3.2870239    eV*rad^-2 0.000 1 Bond
H1    core                  Three-body angl  115.61000    degrees   0.000 1 Bond
H1    core                  Three-body k4    0.0000000    eV*rad^-4 0.000 1 Bond
                            Three-body k3    0.0000000    eV*rad^-3 
--------------------------------------------------------------------------------
C2    core    Harmonic      Three-body cnst  4.5445925    eV*rad^-2 0.000 1 Bond
H1    core                  Three-body angl  112.37000    degrees   0.000 1 Bond
N1    core                  Three-body k4    0.0000000    eV*rad^-4 0.000 1 Bond
                            Three-body k3    0.0000000    eV*rad^-3 
--------------------------------------------------------------------------------
C2    core    Harmonic      Three-body cnst  4.7093773    eV*rad^-2 0.000 1 Bond
H1    core                  Three-body angl  121.94000    degrees   0.000 1 Bond
O2    core                  Three-body k4    0.0000000    eV*rad^-4 0.000 1 Bond
                            Three-body k3    0.0000000    eV*rad^-3 
--------------------------------------------------------------------------------
C2    core    Harmonic      Three-body cnst  4.6833587    eV*rad^-2 0.000 1 Bond
H1    core                  Three-body angl  111.82000    degrees   0.000 1 Bond
O1    core                  Three-body k4    0.0000000    eV*rad^-4 0.000 1 Bond
                            Three-body k3    0.0000000    eV*rad^-3 
--------------------------------------------------------------------------------
C2    core    Harmonic      Three-body cnst  3.4084444    eV*rad^-2 0.000 1 Bond
H4    core                  Three-body angl  115.68000    degrees   0.000 1 Bond
H4    core                  Three-body k4    0.0000000    eV*rad^-4 0.000 1 Bond
                            Three-body k3    0.0000000    eV*rad^-3 
--------------------------------------------------------------------------------
C2    core    Harmonic      Three-body cnst  4.4318450    eV*rad^-2 0.000 1 Bond
H4    core                  Three-body angl  120.00000    degrees   0.000 1 Bond
N1    core                  Three-body k4    0.0000000    eV*rad^-4 0.000 1 Bond
                            Three-body k3    0.0000000    eV*rad^-3 
--------------------------------------------------------------------------------
C2    core    Harmonic      Three-body cnst  4.8047791    eV*rad^-2 0.000 1 Bond
H4    core                  Three-body angl  120.00000    degrees   0.000 1 Bond
O2    core                  Three-body k4    0.0000000    eV*rad^-4 0.000 1 Bond
                            Three-body k3    0.0000000    eV*rad^-3 
--------------------------------------------------------------------------------
C2    core    Harmonic      Three-body cnst  4.6920315    eV*rad^-2 0.000 1 Bond
H4    core                  Three-body angl  113.70000    degrees   0.000 1 Bond
O1    core                  Three-body k4    0.0000000    eV*rad^-4 0.000 1 Bond
                            Three-body k3    0.0000000    eV*rad^-3 
--------------------------------------------------------------------------------
C2    core    Harmonic      Three-body cnst  6.5393564    eV*rad^-2 0.000 1 Bond
N1    core                  Three-body angl  111.70000    degrees   0.000 1 Bond
N1    core                  Three-body k4    0.0000000    eV*rad^-4 0.000 1 Bond
                            Three-body k3    0.0000000    eV*rad^-3 
--------------------------------------------------------------------------------
C2    core    Harmonic      Three-body cnst  6.5740479    eV*rad^-2 0.000 1 Bond
N1    core                  Three-body angl  122.03000    degrees   0.000 1 Bond
O2    core                  Three-body k4    0.0000000    eV*rad^-4 0.000 1 Bond
                            Three-body k3    0.0000000    eV*rad^-3 
--------------------------------------------------------------------------------
C2    core    Harmonic      Three-body cnst  6.8602531    eV*rad^-2 0.000 1 Bond
O2    core                  Three-body angl  127.33000    degrees   0.000 1 Bond
O2    core                  Three-body k4    0.0000000    eV*rad^-4 0.000 1 Bond
                            Three-body k3    0.0000000    eV*rad^-3 
--------------------------------------------------------------------------------
C2    core    Harmonic      Three-body cnst  6.7128141    eV*rad^-2 0.000 1 Bond
O1    core                  Three-body angl  122.88000    degrees   0.000 1 Bond
O2    core                  Three-body k4    0.0000000    eV*rad^-4 0.000 1 Bond
                            Three-body k3    0.0000000    eV*rad^-3 
--------------------------------------------------------------------------------
C2    core    Harmonic      Three-body cnst  6.8429074    eV*rad^-2 0.000 1 Bond
O1    core                  Three-body angl  110.56000    degrees   0.000 1 Bond
O1    core                  Three-body k4    0.0000000    eV*rad^-4 0.000 1 Bond
                            Three-body k3    0.0000000    eV*rad^-3 
--------------------------------------------------------------------------------
C3    core    Harmonic      Three-body cnst  5.5246286    eV*rad^-2 0.000 1 Bond
C2    core                  Three-body angl  112.95000    degrees   0.000 1 Bond
C2    core                  Three-body k4    0.0000000    eV*rad^-4 0.000 1 Bond
                            Three-body k3    0.0000000    eV*rad^-3 
--------------------------------------------------------------------------------
C3    core    Harmonic      Three-body cnst  5.5333015    eV*rad^-2 0.000 1 Bond
C2    core                  Three-body angl  110.53000    degrees   0.000 1 Bond
C3    core                  Three-body k4    0.0000000    eV*rad^-4 0.000 1 Bond
                            Three-body k3    0.0000000    eV*rad^-3 
--------------------------------------------------------------------------------
C3    core    Harmonic      Three-body cnst  5.5593202    eV*rad^-2 0.000 1 Bond
C1    core                  Three-body angl  111.23000    degrees   0.000 1 Bond
C2    core                  Three-body k4    0.0000000    eV*rad^-4 0.000 1 Bond
                            Three-body k3    0.0000000    eV*rad^-3 
--------------------------------------------------------------------------------
C3    core    Harmonic      Three-body cnst  4.0936024    eV*rad^-2 0.000 1 Bond
H4    core                  Three-body angl  109.68000    degrees   0.000 1 Bond
C2    core                  Three-body k4    0.0000000    eV*rad^-4 0.000 1 Bond
                            Three-body k3    0.0000000    eV*rad^-3 
--------------------------------------------------------------------------------
C3    core    Harmonic      Three-body cnst  5.7848152    eV*rad^-2 0.000 1 Bond
C2    core                  Three-body angl  111.56000    degrees   0.000 1 Bond
N1    core                  Three-body k4    0.0000000    eV*rad^-4 0.000 1 Bond
                            Three-body k3    0.0000000    eV*rad^-3 
--------------------------------------------------------------------------------
C3    core    Harmonic      Three-body cnst  5.9322543    eV*rad^-2 0.000 1 Bond
C2    core                  Three-body angl  109.46000    degrees   0.000 1 Bond
O1    core                  Three-body k4    0.0000000    eV*rad^-4 0.000 1 Bond
                            Three-body k3    0.0000000    eV*rad^-3 
--------------------------------------------------------------------------------
C3    core    Harmonic      Three-body cnst  5.4812642    eV*rad^-2 0.000 1 Bond
C3    core                  Three-body angl  110.63000    degrees   0.000 1 Bond
C3    core                  Three-body k4    0.0000000    eV*rad^-4 0.000 1 Bond
                            Three-body k3    0.0000000    eV*rad^-3 
--------------------------------------------------------------------------------
C3    core    Harmonic      Three-body cnst  5.4205540    eV*rad^-2 0.000 1 Bond
C1    core                  Three-body angl  114.61000    degrees   0.000 1 Bond
C3    core                  Three-body k4    0.0000000    eV*rad^-4 0.000 1 Bond
                            Three-body k3    0.0000000    eV*rad^-3 
--------------------------------------------------------------------------------
C3    core    Harmonic      Three-body cnst  4.0242193    eV*rad^-2 0.000 1 Bond
H4    core                  Three-body angl  110.05000    degrees   0.000 1 Bond
C3    core                  Three-body k4    0.0000000    eV*rad^-4 0.000 1 Bond
                            Three-body k3    0.0000000    eV*rad^-3 
--------------------------------------------------------------------------------
C3    core    Harmonic      Three-body cnst  5.7154321    eV*rad^-2 0.000 1 Bond
C3    core                  Three-body angl  112.13000    degrees   0.000 1 Bond
N1    core                  Three-body k4    0.0000000    eV*rad^-4 0.000 1 Bond
                            Three-body k3    0.0000000    eV*rad^-3 
--------------------------------------------------------------------------------
C3    core    Harmonic      Three-body cnst  5.8715441    eV*rad^-2 0.000 1 Bond
C3    core                  Three-body angl  109.43000    degrees   0.000 1 Bond
O1    core                  Three-body k4    0.0000000    eV*rad^-4 0.000 1 Bond
                            Three-body k3    0.0000000    eV*rad^-3 
--------------------------------------------------------------------------------
C3    core    Harmonic      Three-body cnst  5.5159558    eV*rad^-2 0.000 1 Bond
C1    core                  Three-body angl  112.47000    degrees   0.000 1 Bond
C1    core                  Three-body k4    0.0000000    eV*rad^-4 0.000 1 Bond
                            Three-body k3    0.0000000    eV*rad^-3 
--------------------------------------------------------------------------------
C3    core    Harmonic      Three-body cnst  4.0762566    eV*rad^-2 0.000 1 Bond
H4    core                  Three-body angl  110.15000    degrees   0.000 1 Bond
C1    core                  Three-body k4    0.0000000    eV*rad^-4 0.000 1 Bond
                            Three-body k3    0.0000000    eV*rad^-3 
--------------------------------------------------------------------------------
C3    core    Harmonic      Three-body cnst  5.8281797    eV*rad^-2 0.000 1 Bond
C1    core                  Three-body angl  112.97000    degrees   0.000 1 Bond
O1    core                  Three-body k4    0.0000000    eV*rad^-4 0.000 1 Bond
                            Three-body k3    0.0000000    eV*rad^-3 
--------------------------------------------------------------------------------
C3    core    Harmonic      Three-body cnst  3.4171172    eV*rad^-2 0.000 1 Bond
H4    core                  Three-body angl  108.35000    degrees   0.000 1 Bond
H4    core                  Three-body k4    0.0000000    eV*rad^-4 0.000 1 Bond
                            Three-body k3    0.0000000    eV*rad^-3 
--------------------------------------------------------------------------------
C3    core    Harmonic      Three-body cnst  4.3190974    eV*rad^-2 0.000 1 Bond
H4    core                  Three-body angl  109.50000    degrees   0.000 1 Bond
N1    core                  Three-body k4    0.0000000    eV*rad^-4 0.000 1 Bond
                            Three-body k3    0.0000000    eV*rad^-3 
--------------------------------------------------------------------------------
C3    core    Harmonic      Three-body cnst  4.4318450    eV*rad^-2 0.000 1 Bond
H4    core                  Three-body angl  109.50000    degrees   0.000 1 Bond
O1    core                  Three-body k4    0.0000000    eV*rad^-4 0.000 1 Bond
                            Three-body k3    0.0000000    eV*rad^-3 
--------------------------------------------------------------------------------
C3    core    Harmonic      Three-body cnst  5.9669458    eV*rad^-2 0.000 1 Bond
N1    core                  Three-body angl  113.81000    degrees   0.000 1 Bond
N1    core                  Three-body k4    0.0000000    eV*rad^-4 0.000 1 Bond
                            Three-body k3    0.0000000    eV*rad^-3 
--------------------------------------------------------------------------------
C3    core    Harmonic      Three-body cnst  6.3658986    eV*rad^-2 0.000 1 Bond
O2    core                  Three-body angl  122.30000    degrees   0.000 1 Bond
O2    core                  Three-body k4    0.0000000    eV*rad^-4 0.000 1 Bond
                            Three-body k3    0.0000000    eV*rad^-3 
--------------------------------------------------------------------------------
C3    core    Harmonic      Three-body cnst  6.2531511    eV*rad^-2 0.000 1 Bond
O1    core                  Three-body angl  111.08000    degrees   0.000 1 Bond
O1    core                  Three-body k4    0.0000000    eV*rad^-4 0.000 1 Bond
                            Three-body k3    0.0000000    eV*rad^-3 
--------------------------------------------------------------------------------
C1    core    Harmonic      Three-body cnst  5.4378998    eV*rad^-2 0.000 1 Bond
C2    core                  Three-body angl  120.00000    degrees   0.000 1 Bond
C2    core                  Three-body k4    0.0000000    eV*rad^-4 0.000 1 Bond
                            Three-body k3    0.0000000    eV*rad^-3 
--------------------------------------------------------------------------------
C1    core    Harmonic      Three-body cnst  5.4292269    eV*rad^-2 0.000 1 Bond
C2    core                  Three-body angl  118.06000    degrees   0.000 1 Bond
C3    core                  Three-body k4    0.0000000    eV*rad^-4 0.000 1 Bond
                            Three-body k3    0.0000000    eV*rad^-3 
--------------------------------------------------------------------------------
C1    core    Harmonic      Three-body cnst  5.6026846    eV*rad^-2 0.000 1 Bond
C1    core                  Three-body angl  120.14000    degrees   0.000 1 Bond
C2    core                  Three-body k4    0.0000000    eV*rad^-4 0.000 1 Bond
                            Three-body k3    0.0000000    eV*rad^-3 
--------------------------------------------------------------------------------
C1    core    Harmonic      Three-body cnst  4.0328922    eV*rad^-2 0.000 1 Bond
H1    core                  Three-body angl  115.90000    degrees   0.000 1 Bond
C2    core                  Three-body k4    0.0000000    eV*rad^-4 0.000 1 Bond
                            Three-body k3    0.0000000    eV*rad^-3 
--------------------------------------------------------------------------------
C1    core    Harmonic      Three-body cnst 0.97136328    eV*rad^-2 0.000 1 Bond
H4    core                  Three-body angl  120.00000    degrees   0.000 1 Bond
C2    core                  Three-body k4    0.0000000    eV*rad^-4 0.000 1 Bond
                            Three-body k3    0.0000000    eV*rad^-3 
--------------------------------------------------------------------------------
C1    core    Harmonic      Three-body cnst  5.4118811    eV*rad^-2 0.000 1 Bond
C3    core                  Three-body angl  116.80000    degrees   0.000 1 Bond
C3    core                  Three-body k4    0.0000000    eV*rad^-4 0.000 1 Bond
                            Three-body k3    0.0000000    eV*rad^-3 
--------------------------------------------------------------------------------
C1    core    Harmonic      Three-body cnst  5.5333015    eV*rad^-2 0.000 1 Bond
C1    core                  Three-body angl  120.63000    degrees   0.000 1 Bond
C3    core                  Three-body k4    0.0000000    eV*rad^-4 0.000 1 Bond
                            Three-body k3    0.0000000    eV*rad^-3 
--------------------------------------------------------------------------------
C1    core    Harmonic      Three-body cnst  5.8281797    eV*rad^-2 0.000 1 Bond
C1    core                  Three-body angl  119.97000    degrees   0.000 1 Bond
C1    core                  Three-body k4    0.0000000    eV*rad^-4 0.000 1 Bond
                            Three-body k3    0.0000000    eV*rad^-3 
--------------------------------------------------------------------------------
C1    core    Harmonic      Three-body cnst  4.2063499    eV*rad^-2 0.000 1 Bond
H1    core                  Three-body angl  120.01000    degrees   0.000 1 Bond
C1    core                  Three-body k4    0.0000000    eV*rad^-4 0.000 1 Bond
                            Three-body k3    0.0000000    eV*rad^-3 
--------------------------------------------------------------------------------
C1    core    Harmonic      Three-body cnst  5.8975628    eV*rad^-2 0.000 1 Bond
C1    core                  Three-body angl  119.89000    degrees   0.000 1 Bond
N1    core                  Three-body k4    0.0000000    eV*rad^-4 0.000 1 Bond
                            Three-body k3    0.0000000    eV*rad^-3 
--------------------------------------------------------------------------------
C1    core    Harmonic      Three-body cnst  6.1490765    eV*rad^-2 0.000 1 Bond
C1    core                  Three-body angl  123.43000    degrees   0.000 1 Bond
O2    core                  Three-body k4    0.0000000    eV*rad^-4 0.000 1 Bond
                            Three-body k3    0.0000000    eV*rad^-3 
--------------------------------------------------------------------------------
C1    core    Harmonic      Three-body cnst  6.0536747    eV*rad^-2 0.000 1 Bond
C1    core                  Three-body angl  119.94000    degrees   0.000 1 Bond
O1    core                  Three-body k4    0.0000000    eV*rad^-4 0.000 1 Bond
                            Three-body k3    0.0000000    eV*rad^-3 
--------------------------------------------------------------------------------
C1    core    Harmonic      Three-body cnst  6.5480292    eV*rad^-2 0.000 1 Bond
O2    core                  Three-body angl  126.82000    degrees   0.000 1 Bond
O2    core                  Three-body k4    0.0000000    eV*rad^-4 0.000 1 Bond
                            Three-body k3    0.0000000    eV*rad^-3 
--------------------------------------------------------------------------------
C1    core    Harmonic      Three-body cnst  6.2965155    eV*rad^-2 0.000 1 Bond
O1    core                  Three-body angl  120.00000    degrees   0.000 1 Bond
O1    core                  Three-body k4    0.0000000    eV*rad^-4 0.000 1 Bond
                            Three-body k3    0.0000000    eV*rad^-3 
--------------------------------------------------------------------------------
N1    core    Harmonic      Three-body cnst  5.8455254    eV*rad^-2 0.000 1 Bond
C2    core                  Three-body angl  119.63000    degrees   0.000 1 Bond
C2    core                  Three-body k4    0.0000000    eV*rad^-4 0.000 1 Bond
                            Three-body k3    0.0000000    eV*rad^-3 
--------------------------------------------------------------------------------
N1    core    Harmonic      Three-body cnst  5.5419744    eV*rad^-2 0.000 1 Bond
C2    core                  Three-body angl  121.35000    degrees   0.000 1 Bond
C3    core                  Three-body k4    0.0000000    eV*rad^-4 0.000 1 Bond
                            Three-body k3    0.0000000    eV*rad^-3 
--------------------------------------------------------------------------------
N1    core    Harmonic      Three-body cnst  5.5766660    eV*rad^-2 0.000 1 Bond
C1    core                  Three-body angl  123.71000    degrees   0.000 1 Bond
C2    core                  Three-body k4    0.0000000    eV*rad^-4 0.000 1 Bond
                            Three-body k3    0.0000000    eV*rad^-3 
--------------------------------------------------------------------------------
N1    core    Harmonic      Three-body cnst  4.2670601    eV*rad^-2 0.000 1 Bond
H3    core                  Three-body angl  118.46000    degrees   0.000 1 Bond
C2    core                  Three-body k4    0.0000000    eV*rad^-4 0.000 1 Bond
                            Three-body k3    0.0000000    eV*rad^-3 
--------------------------------------------------------------------------------
N1    core    Harmonic      Three-body cnst  5.9149085    eV*rad^-2 0.000 1 Bond
C2    core                  Three-body angl  118.42000    degrees   0.000 1 Bond
N1    core                  Three-body k4    0.0000000    eV*rad^-4 0.000 1 Bond
                            Three-body k3    0.0000000    eV*rad^-3 
--------------------------------------------------------------------------------
N1    core    Harmonic      Three-body cnst  6.2097867    eV*rad^-2 0.000 1 Bond
C2    core                  Three-body angl  118.90000    degrees   0.000 1 Bond
O2    core                  Three-body k4    0.0000000    eV*rad^-4 0.000 1 Bond
                            Three-body k3    0.0000000    eV*rad^-3 
--------------------------------------------------------------------------------
N1    core    Harmonic      Three-body cnst  6.0276561    eV*rad^-2 0.000 1 Bond
C2    core                  Three-body angl  113.39000    degrees   0.000 1 Bond
O1    core                  Three-body k4    0.0000000    eV*rad^-4 0.000 1 Bond
                            Three-body k3    0.0000000    eV*rad^-3 
--------------------------------------------------------------------------------
N1    core    Harmonic      Three-body cnst  5.5506473    eV*rad^-2 0.000 1 Bond
C3    core                  Three-body angl  112.62000    degrees   0.000 1 Bond
C3    core                  Three-body k4    0.0000000    eV*rad^-4 0.000 1 Bond
                            Three-body k3    0.0000000    eV*rad^-3 
--------------------------------------------------------------------------------
N1    core    Harmonic      Three-body cnst  5.4118811    eV*rad^-2 0.000 1 Bond
C1    core                  Three-body angl  121.15000    degrees   0.000 1 Bond
C3    core                  Three-body k4    0.0000000    eV*rad^-4 0.000 1 Bond
                            Three-body k3    0.0000000    eV*rad^-3 
--------------------------------------------------------------------------------
N1    core    Harmonic      Three-body cnst  3.9895277    eV*rad^-2 0.000 1 Bond
H3    core                  Three-body angl  116.78000    degrees   0.000 1 Bond
C3    core                  Three-body k4    0.0000000    eV*rad^-4 0.000 1 Bond
                            Three-body k3    0.0000000    eV*rad^-3 
--------------------------------------------------------------------------------
N1    core    Harmonic      Three-body cnst  5.5940117    eV*rad^-2 0.000 1 Bond
C1    core                  Three-body angl  116.80000    degrees   0.000 1 Bond
C1    core                  Three-body k4    0.0000000    eV*rad^-4 0.000 1 Bond
                            Three-body k3    0.0000000    eV*rad^-3 
--------------------------------------------------------------------------------
N1    core    Harmonic      Three-body cnst  4.1282939    eV*rad^-2 0.000 1 Bond
H3    core                  Three-body angl  114.59000    degrees   0.000 1 Bond
C1    core                  Three-body k4    0.0000000    eV*rad^-4 0.000 1 Bond
                            Three-body k3    0.0000000    eV*rad^-3 
--------------------------------------------------------------------------------
N1    core    Harmonic      Three-body cnst  3.4431359    eV*rad^-2 0.000 1 Bond
H3    core                  Three-body angl  117.85000    degrees   0.000 1 Bond
H3    core                  Three-body k4    0.0000000    eV*rad^-4 0.000 1 Bond
                            Three-body k3    0.0000000    eV*rad^-3 
--------------------------------------------------------------------------------
N1    core    Harmonic      Three-body cnst  4.3451161    eV*rad^-2 0.000 1 Bond
H3    core                  Three-body angl  113.12000    degrees   0.000 1 Bond
N1    core                  Three-body k4    0.0000000    eV*rad^-4 0.000 1 Bond
                            Three-body k3    0.0000000    eV*rad^-3 
--------------------------------------------------------------------------------
N1    core    Harmonic      Three-body cnst  4.6660129    eV*rad^-2 0.000 1 Bond
H3    core                  Three-body angl  116.32000    degrees   0.000 1 Bond
O2    core                  Three-body k4    0.0000000    eV*rad^-4 0.000 1 Bond
                            Three-body k3    0.0000000    eV*rad^-3 
--------------------------------------------------------------------------------
N1    core    Harmonic      Three-body cnst  4.3971534    eV*rad^-2 0.000 1 Bond
H3    core                  Three-body angl  109.21000    degrees   0.000 1 Bond
O1    core                  Three-body k4    0.0000000    eV*rad^-4 0.000 1 Bond
                            Three-body k3    0.0000000    eV*rad^-3 
--------------------------------------------------------------------------------
N1    core    Harmonic      Three-body cnst  6.0623476    eV*rad^-2 0.000 1 Bond
N1    core                  Three-body angl  114.62000    degrees   0.000 1 Bond
N1    core                  Three-body k4    0.0000000    eV*rad^-4 0.000 1 Bond
                            Three-body k3    0.0000000    eV*rad^-3 
--------------------------------------------------------------------------------
N1    core    Harmonic      Three-body cnst  6.3658986    eV*rad^-2 0.000 1 Bond
O2    core                  Three-body angl  128.61000    degrees   0.000 1 Bond
O2    core                  Three-body k4    0.0000000    eV*rad^-4 0.000 1 Bond
                            Three-body k3    0.0000000    eV*rad^-3 
--------------------------------------------------------------------------------
N1    core    Harmonic      Three-body cnst  6.2444782    eV*rad^-2 0.000 1 Bond
O1    core                  Three-body angl  107.26000    degrees   0.000 1 Bond
O1    core                  Three-body k4    0.0000000    eV*rad^-4 0.000 1 Bond
                            Three-body k3    0.0000000    eV*rad^-3 
--------------------------------------------------------------------------------
O1    core    Harmonic      Three-body cnst  4.4405178    eV*rad^-2 0.000 1 Bond
H2    core                  Three-body angl  107.37000    degrees   0.000 1 Bond
C2    core                  Three-body k4    0.0000000    eV*rad^-4 0.000 1 Bond
                            Three-body k3    0.0000000    eV*rad^-3 
--------------------------------------------------------------------------------
O1    core    Harmonic      Three-body cnst  4.0849295    eV*rad^-2 0.000 1 Bond
H2    core                  Three-body angl  108.16000    degrees   0.000 1 Bond
C3    core                  Three-body k4    0.0000000    eV*rad^-4 0.000 1 Bond
                            Three-body k3    0.0000000    eV*rad^-3 
--------------------------------------------------------------------------------
O1    core    Harmonic      Three-body cnst  4.2410415    eV*rad^-2 0.000 1 Bond
H2    core                  Three-body angl  109.47000    degrees   0.000 1 Bond
C1    core                  Three-body k4    0.0000000    eV*rad^-4 0.000 1 Bond
                            Three-body k3    0.0000000    eV*rad^-3 
--------------------------------------------------------------------------------
O1    core    Harmonic      Three-body cnst  3.6339394    eV*rad^-2 0.000 1 Bond
H2    core                  Three-body angl  104.80000    degrees   0.000 1 Bond
H2    core                  Three-body k4    0.0000000    eV*rad^-4 0.000 1 Bond
                            Three-body k3    0.0000000    eV*rad^-3 
--------------------------------------------------------------------------------
O1    core    Harmonic      Three-body cnst  4.3798076    eV*rad^-2 0.000 1 Bond
H2    core                  Three-body angl  101.03000    degrees   0.000 1 Bond
N1    core                  Three-body k4    0.0000000    eV*rad^-4 0.000 1 Bond
                            Three-body k3    0.0000000    eV*rad^-3 
--------------------------------------------------------------------------------
O1    core    Harmonic      Three-body cnst  4.1022753    eV*rad^-2 0.000 1 Bond
H2    core                  Three-body angl  100.87000    degrees   0.000 1 Bond
O2    core                  Three-body k4    0.0000000    eV*rad^-4 0.000 1 Bond
                            Three-body k3    0.0000000    eV*rad^-3 
--------------------------------------------------------------------------------
O1    core    Harmonic      Three-body cnst  4.2757330    eV*rad^-2 0.000 1 Bond
H2    core                  Three-body angl  98.720000    degrees   0.000 1 Bond
O1    core                  Three-body k4    0.0000000    eV*rad^-4 0.000 1 Bond
                            Three-body k3    0.0000000    eV*rad^-3 
--------------------------------------------------------------------------------

  Intramolecular Four-body potentials :

--------------------------------------------------------------------------------
  Atoms       Potential      Parameter       Value         Units   Cutoffs(Ang)
  1 - 4                                                             Min /  Max 
--------------------------------------------------------------------------------
X     core    Standard      Torsional const 0.13009330E-01eV         Bonded
C2    core Phase = +  2                                                       
C2    core                                                              
X     core
--------------------------------------------------------------------------------
X     core    Standard      Torsional const  0.0000000    eV         Bonded
C2    core Phase = +  2                                                       
C3    core                                                              
X     core
--------------------------------------------------------------------------------
X     core    Standard      Torsional const 0.15719607    eV         Bonded
C2    core Phase = +  2                                                       
C1    core                                                              
X     core
--------------------------------------------------------------------------------
X     core    Standard      Torsional const 0.10841108    eV         Bonded
C2    core Phase = +  2                                                       
N1    core                                                              
X     core
--------------------------------------------------------------------------------
X     core    Standard      Torsional const 0.99738194E-01eV         Bonded
C2    core Phase = +  2                                                       
O1    core                                                              
X     core
--------------------------------------------------------------------------------
X     core    Standard      Torsional const 0.67475056E-02eV         Bonded
C3    core Phase = +  3                                                       
C3    core                                                              
X     core
--------------------------------------------------------------------------------
X     core    Standard      Torsional const  0.0000000    eV         Bonded
C3    core Phase = +  2                                                       
C1    core                                                              
X     core
--------------------------------------------------------------------------------
X     core    Standard      Torsional const  0.0000000    eV         Bonded
C3    core Phase = +  2                                                       
N1    core                                                              
X     core
--------------------------------------------------------------------------------
X     core    Standard      Torsional const 0.72288508E-02eV         Bonded
C3    core Phase = +  3                                                       
O1    core                                                              
X     core
--------------------------------------------------------------------------------
X     core    Standard      Torsional const 0.15719607    eV         Bonded
C1    core Phase = +  2                                                       
C1    core                                                              
X     core
--------------------------------------------------------------------------------
X     core    Standard      Torsional const 0.19513994E-01eV         Bonded
C1    core Phase = +  2                                                       
N1    core                                                              
X     core
--------------------------------------------------------------------------------
X     core    Standard      Torsional const 0.39027989E-01eV         Bonded
C1    core Phase = +  2                                                       
O1    core                                                              
X     core
--------------------------------------------------------------------------------
X     core    Standard      Torsional const 0.49869097E-01eV         Bonded
N1    core Phase = +  2                                                       
[...]
    25 y      -0.000353 -0.000266  0.000207  0.000156 -0.001924 -0.000667
    25 z      -0.000884 -0.000667  0.000411  0.000310 -0.005342 -0.001851
    26 x      -0.002990  0.006620  0.003098 -0.006861  0.000068 -0.000610
    26 y      -0.000819  0.001815  0.000838 -0.001856  0.000029 -0.000258
    26 z       0.002272 -0.005032 -0.002327  0.005152 -0.000057  0.000511
    27 x      -0.000655 -0.001281 -0.000280 -0.000547  0.005322  0.005324
    27 y       0.000201  0.000393  0.000118  0.000231 -0.001440 -0.001440
    27 z       0.000504  0.000986  0.000234  0.000458 -0.003996 -0.003998
    28 x      -0.007036  0.001803 -0.007292  0.001869 -0.000519  0.000328
    28 y      -0.001929  0.000494 -0.001973  0.000506 -0.000219  0.000138
    28 z       0.005348 -0.001370  0.005476 -0.001403  0.000435 -0.000275
    29 x      -0.000215 -0.000149 -0.000100 -0.000069 -0.001811 -0.000545
    29 y      -0.000180 -0.000125 -0.000174 -0.000120 -0.001443 -0.000434
    29 z      -0.000119 -0.000082 -0.000084 -0.000058  0.000027  0.000008
    30 x       0.000556 -0.001247 -0.000770  0.001727  0.000013 -0.000120
    30 y      -0.000400  0.000897  0.000614 -0.001376 -0.000023  0.000210
    30 z       0.000171 -0.000383  0.000011 -0.000026  0.000011 -0.000101
    31 x       0.000109  0.000237 -0.000051 -0.000110 -0.001280 -0.001392
    31 y       0.000092  0.000199 -0.000088 -0.000192 -0.001020 -0.001109
    31 z       0.000060  0.000131 -0.000043 -0.000092  0.000019  0.000021
    32 x       0.001324 -0.000333  0.001834 -0.000461 -0.000103  0.000064
    32 y      -0.000953  0.000239 -0.001462  0.000367  0.000179 -0.000112
    32 z       0.000407 -0.000102 -0.000027  0.000007 -0.000086  0.000054
    33 x       0.000254 -0.000014  0.000775 -0.000043  0.002345 -0.000904
    33 y       0.000128 -0.000007  0.000830 -0.000046  0.001923 -0.000741
    33 z       0.000313 -0.000017  0.000138 -0.000008  0.000272 -0.000105
    34 x      -0.000549  0.000849  0.001364 -0.002110 -0.000201  0.000750
    34 y       0.000341 -0.000528 -0.001119  0.001731  0.000215 -0.000803
    34 z      -0.000841  0.001301  0.000159 -0.000245 -0.000036  0.000133
    35 x       0.000058 -0.000247 -0.000176  0.000756  0.000210  0.002504
    35 y       0.000029 -0.000125 -0.000189  0.000809  0.000172  0.002054
    35 z       0.000071 -0.000306 -0.000031  0.000134  0.000024  0.000291
    36 x      -0.000931  0.000394 -0.002314  0.000980  0.000587 -0.000508
    36 y       0.000579 -0.000245  0.001898 -0.000803 -0.000628  0.000543
    36 z      -0.001426  0.000604 -0.000269  0.000114  0.000104 -0.000090
    37 x      -0.000108 -0.000687 -0.000153 -0.000971  0.000038  0.000074
    37 y      -0.000014 -0.000086 -0.000030 -0.000188 -0.000104 -0.000206
    37 z       0.000061  0.000390  0.000101  0.000644 -0.000040 -0.000078
    38 x      -0.000068  0.000315  0.000018 -0.000081 -0.000098 -0.000978
    38 y       0.000076 -0.000352  0.000049 -0.000226  0.000019  0.000189
    38 z       0.000083 -0.000385 -0.000018  0.000086  0.000065  0.000649
    39 x       0.000658  0.000225 -0.000930 -0.000318  0.000083  0.000001
    39 y       0.000083  0.000028 -0.000180 -0.000062 -0.000231 -0.000004
    39 z      -0.000374 -0.000128  0.000617  0.000211 -0.000088 -0.000001
    40 x      -0.000322  0.000013 -0.000083  0.000003 -0.000923  0.000338
    40 y       0.000360 -0.000014 -0.000231  0.000009  0.000179 -0.000066
    40 z       0.000394 -0.000015  0.000088 -0.000003  0.000612 -0.000224
    41 x       0.000477  0.002442  0.000647  0.003316 -0.000214 -0.000388
    41 y       0.000005  0.000027  0.000044  0.000224  0.000397  0.000717
    41 z      -0.000341 -0.001747 -0.000470 -0.002408  0.000146  0.000264
    42 x       0.000182 -0.000830 -0.000095  0.000433  0.000325  0.003363
    42 y      -0.000147  0.000670 -0.000176  0.000800 -0.000022 -0.000228
    42 z      -0.000211  0.000960  0.000065 -0.000295 -0.000236 -0.002442
    43 x      -0.002323 -0.000891  0.003155  0.001209 -0.000442 -0.000024
    43 y      -0.000026 -0.000010  0.000214  0.000082  0.000818  0.000044
    43 z       0.001662  0.000637 -0.002291 -0.000878  0.000302  0.000016
    44 x       0.000849 -0.000036  0.000443 -0.000019  0.003168 -0.001175
    44 y      -0.000685  0.000029  0.000819 -0.000035 -0.000214  0.000080
    44 z      -0.000982  0.000042 -0.000302  0.000013 -0.002300  0.000853
    45 x       0.000098  0.000486 -0.000026 -0.000130  0.001602  0.002853
    45 y      -0.000085 -0.000422  0.000160  0.000793  0.000089  0.000158
    45 z       0.000021  0.000105 -0.000036 -0.000179 -0.000002 -0.000003
    46 x       0.002636 -0.000614 -0.003186  0.000742 -0.000114  0.000068
    46 y      -0.000170  0.000040  0.000177 -0.000041 -0.000693  0.000417
    46 z      -0.000087  0.000020  0.000003 -0.000001 -0.000157  0.000094
    47 x      -0.000461 -0.000180 -0.000123 -0.000048  0.003266  0.000196
    47 y       0.000401  0.000157  0.000754  0.000294  0.000181  0.000011
    47 z      -0.000100 -0.000039 -0.000170 -0.000067 -0.000003 -0.000000
    48 x       0.001059 -0.002491  0.001280 -0.003010  0.000012 -0.000132
    48 y      -0.000068  0.000161 -0.000071  0.000167  0.000072 -0.000806
    48 z      -0.000035  0.000082 -0.000001  0.000003  0.000016 -0.000182
    49 x      -0.000105 -0.000072 -0.000102 -0.000070 -0.002286 -0.000683
    49 y       0.000168  0.000116 -0.000343 -0.000236 -0.000288 -0.000086
    49 z      -0.000063 -0.000044 -0.000114 -0.000078 -0.001148 -0.000343
    50 x      -0.001442 -0.000589  0.002208  0.000902 -0.000123 -0.000009
    50 y       0.000159  0.000065 -0.000279 -0.000114  0.000415  0.000031
    50 z      -0.000582 -0.000238  0.001109  0.000453 -0.000138 -0.000010
    51 x       0.000053  0.000116 -0.000051 -0.000112 -0.001612 -0.001758
    51 y      -0.000085 -0.000186 -0.000173 -0.000379 -0.000203 -0.000222
    51 z       0.000032  0.000070 -0.000057 -0.000125 -0.000810 -0.000883
    52 x       0.000332  0.001522  0.000508  0.002331 -0.000062 -0.000107
    52 y      -0.000037 -0.000168 -0.000064 -0.000294  0.000209  0.000360
    52 z       0.000134  0.000615  0.000255  0.001170 -0.000069 -0.000119
    53 x       0.000007 -0.000129  0.000027 -0.000506 -0.000786 -0.002967
    53 y      -0.000004  0.000075  0.000038 -0.000705 -0.000459 -0.001732
    53 z      -0.000002  0.000046 -0.000021  0.000394  0.000494  0.001866
    54 x      -0.002413  0.000217  0.003057 -0.000274 -0.000466  0.000198
    54 y       0.001463 -0.000131 -0.001785  0.000160  0.000649 -0.000276
    54 z       0.001581 -0.000142 -0.001922  0.000173  0.000363 -0.000154
    55 x       0.000129  0.000015 -0.000503 -0.000060 -0.003012  0.000588
    55 y      -0.000074 -0.000009 -0.000701 -0.000084 -0.001759  0.000343
    55 z      -0.000045 -0.000005  0.000391  0.000047  0.001894 -0.000370
    56 x      -0.000630  0.002340 -0.000798  0.002964 -0.000025 -0.000506
    56 y       0.000382 -0.001418  0.000466 -0.001730  0.000035  0.000705
    56 z       0.000412 -0.001533  0.000501 -0.001864  0.000020  0.000394
    57 x      -0.000090 -0.000545  0.000114  0.000688 -0.000594 -0.001153
    57 y       0.000206  0.001251 -0.000285 -0.001723  0.000755  0.001464
    57 z      -0.000056 -0.000341  0.000069  0.000415 -0.000201 -0.000389
    58 x      -0.000581  0.000742  0.000799 -0.001021  0.000240 -0.000655
    58 y      -0.000768  0.000982  0.001015 -0.001297  0.000602 -0.001640
    58 z      -0.000180  0.000230  0.000270 -0.000345  0.000145 -0.000395
    59 x       0.000521  0.000183  0.000658  0.000231 -0.001296 -0.000032
    59 y      -0.001196 -0.000419 -0.001649 -0.000577  0.001647  0.000040
    59 z       0.000326  0.000114  0.000397  0.000139 -0.000438 -0.000011
    60 x      -0.000831  0.000444 -0.001144  0.000611 -0.000484  0.000502
    60 y      -0.001099  0.000587 -0.001453  0.000776 -0.001213  0.001257
    60 z      -0.000258  0.000138 -0.000386  0.000206 -0.000292  0.000303
    61 x      -0.000008  0.000009 -0.000074  0.000079  0.000004 -0.000009
    61 y       0.000083 -0.000087  0.000034 -0.000036  0.000017 -0.000035
    61 z       0.000182 -0.000192  0.000036 -0.000038  0.000131 -0.000274
    62 x      -0.000002 -0.000047  0.000000  0.000010  0.000037  0.000102
    62 y       0.000012  0.000302 -0.000002 -0.000039  0.000017  0.000046
    62 z      -0.000013 -0.000339  0.000012  0.000303 -0.000018 -0.000049
    63 x      -0.000010  0.000007  0.000090 -0.000060 -0.000006  0.000008
    63 y       0.000100 -0.000066 -0.000041  0.000027 -0.000024  0.000031
    63 z       0.000221 -0.000146 -0.000043  0.000029 -0.000189  0.000237
    64 x       0.000046  0.000010  0.000010  0.000002  0.000108 -0.000011
    64 y      -0.000295 -0.000064 -0.000038 -0.000008  0.000049 -0.000005
    64 z       0.000332  0.000072  0.000297  0.000064 -0.000052  0.000005
    65 x      -0.000150  0.000022  0.000372 -0.000053 -0.000184  0.000090
    65 y      -0.000314  0.000045 -0.000052  0.000007  0.000151 -0.000074
    65 z      -0.000630  0.000091 -0.000175  0.000025 -0.000084  0.000041
    66 x       0.000138  0.000627 -0.000044 -0.000200 -0.000189 -0.000324
    66 y      -0.000177 -0.000805 -0.000036 -0.000164 -0.000026 -0.000045
    66 z       0.000027  0.000121 -0.000020 -0.000091  0.000089  0.000153
    67 x      -0.000047  0.000144 -0.000117  0.000357  0.000001 -0.000205
    67 y      -0.000099  0.000301  0.000016 -0.000050 -0.000001  0.000168
    67 z      -0.000198  0.000605  0.000055 -0.000169  0.000000 -0.000093
    68 x      -0.000594 -0.000244 -0.000189 -0.000078 -0.000374 -0.000029
    68 y       0.000763  0.000313 -0.000155 -0.000064 -0.000052 -0.000004
    68 z      -0.000115 -0.000047 -0.000086 -0.000035  0.000177  0.000014
    69 x       0.001043 -0.002279 -0.000457  0.000998  0.001549 -0.013217
    69 y      -0.000136  0.000298  0.000247 -0.000540  0.000011 -0.000091
    69 z      -0.000027  0.000058  0.000044 -0.000096  0.000001 -0.000006
    70 x      -0.011829  0.003953  0.012621 -0.004217  0.000884 -0.000651
    70 y       0.000141 -0.000047 -0.000087  0.000029  0.000478 -0.000352
    70 z      -0.000109  0.000036  0.000006 -0.000002 -0.000085  0.000063
    71 x       0.002425 -0.000634  0.001062 -0.000278 -0.011216  0.007161
    71 y      -0.000317  0.000083 -0.000574  0.000150 -0.000077  0.000049
    71 z      -0.000062  0.000016 -0.000102  0.000027 -0.000005  0.000004
    72 x      -0.005933  0.010971 -0.006331  0.011705 -0.000200  0.001079
    72 y       0.000071 -0.000131  0.000044 -0.000081 -0.000108  0.000583
    72 z      -0.000055  0.000101 -0.000003  0.000006  0.000019 -0.000104
    73 x      -0.000017 -0.000307  0.000009  0.000154 -0.001110 -0.002870
    73 y       0.000005  0.000097 -0.000009 -0.000164  0.000102  0.000264
    73 z       0.000013  0.000222 -0.000007 -0.000131  0.000933  0.002413
    74 x       0.000524 -0.002816 -0.000563  0.003025  0.000020  0.000153
    74 y       0.000034 -0.000181 -0.000052  0.000278  0.000021  0.000163
    74 z      -0.000476  0.002556  0.000473 -0.002543 -0.000017 -0.000131
    75 x       0.000299  0.000070  0.000150  0.000035 -0.003067  0.000254
    75 y      -0.000095 -0.000022 -0.000160 -0.000037  0.000282 -0.000023
    75 z      -0.000216 -0.000051 -0.000128 -0.000030  0.002578 -0.000214
    76 x       0.002865 -0.000031  0.003077 -0.000033  0.000146 -0.000049
    76 y       0.000185 -0.000002  0.000283 -0.000003  0.000156 -0.000052
    76 z      -0.002599  0.000028 -0.002586  0.000028 -0.000125  0.000042
    77 x       0.000007  0.000522 -0.000005 -0.000428  0.002241  0.006651
    77 y      -0.000005 -0.000389  0.000007  0.000576 -0.000188 -0.000558
    77 z      -0.000000  0.000000  0.000000 -0.000000 -0.001632 -0.004844
    78 x      -0.001142  0.006525  0.001210 -0.006913 -0.000059 -0.000423
    78 y      -0.000029  0.000166  0.000101 -0.000580 -0.000080 -0.000570
    78 z       0.000908 -0.005186 -0.000882  0.005035  0.000000 -0.000000
    79 x      -0.000513 -0.000096 -0.000420 -0.000079  0.006962 -0.000887
    79 y       0.000382  0.000072  0.000566  0.000106 -0.000584  0.000074
    79 z      -0.000000 -0.000000  0.000000  0.000000 -0.005071  0.000646
    80 x      -0.006624  0.000000 -0.007019 -0.000000 -0.000407  0.000131
    80 y      -0.000168  0.000000 -0.000588 -0.000000 -0.000548  0.000177
    80 z       0.005265  0.000000  0.005112  0.000000 -0.000000  0.000000




--------------------------------------------------------------------------------
  Phonon properties (per mole of unit cells): Temperature =      0.000 K
--------------------------------------------------------------------------------
  Zero point energy             =       17.679615 eV
--------------------------------------------------------------------------------

  Phonon density of states : 

--------------------------------------------------------------------------------
 Frequency (cm-1) Density of States                                             
--------------------------------------------------------------------------------
    0.00000 |********                                                      0.015
   50.33527 |*************************                                     0.046
  100.67055 |*********************************                             0.061
  151.00582 |******                                                        0.013
  201.34109 |***********************                                       0.042
  251.67637 |**                                                            0.004
  302.01164 |*********                                                     0.017
  352.34691 |****************                                              0.029
  402.68219 |***********                                                   0.021
  453.01746 |*********                                                     0.017
  503.35273 |******************                                            0.033
  553.68801 |                                                              0.000
  604.02328 |******************                                            0.033
  654.35855 |******************                                            0.033
  704.69383 |*********                                                     0.017
  755.02910 |*********                                                     0.017
  805.36438 |**********                                                    0.019
  855.69965 |**************************                                    0.048
  906.03492 |*********                                                     0.017
  956.37020 |                                                              0.000
 1006.70547 |***************************                                   0.050
 1057.04074 |                                                              0.000
 1107.37602 |******************                                            0.033
 1157.71129 |*********                                                     0.017
 1208.04656 |*********                                                     0.017
 1258.38184 |*********                                                     0.017
 1308.71711 |******************                                            0.033
 1359.05238 |*********                                                     0.017
 1409.38766 |                                                              0.000
 1459.72293 |***************************                                   0.050
 1510.05820 |***********                                                   0.021
 1560.39348 |******                                                        0.013
 1610.72875 |                                                              0.000
 1661.06402 |                                                              0.000
 1711.39930 |********************                                          0.038
 1761.73457 |*************************                                     0.046
 1812.06984 |                                                              0.000
 1862.40512 |*********                                                     0.017
 1912.74039 |                                                              0.000
 1963.07566 |                                                              0.000
 2013.41094 |                                                              0.000
 2063.74621 |                                                              0.000
 2114.08148 |                                                              0.000
 2164.41676 |                                                              0.000
 2214.75203 |                                                              0.000
 2265.08731 |                                                              0.000
 2315.42258 |                                                              0.000
 2365.75785 |                                                              0.000
 2416.09313 |                                                              0.000
 2466.42840 |                                                              0.000
 2516.76367 |                                                              0.000
 2567.09895 |                                                              0.000
 2617.43422 |                                                              0.000
 2667.76949 |                                                              0.000
 2718.10477 |                                                              0.000
 2768.44004 |                                                              0.000
 2818.77531 |                                                              0.000
 2869.11059 |*********                                                     0.017
 2919.44586 |                                                              0.000
 2969.78113 |************************************************************  0.109
 3020.11641 |****                                                          0.008
 3070.45168 |                                                              0.000
 3120.78695 |                                                              0.000
 3171.12223 |*********                                                     0.017
--------------------------------------------------------------------------------



  Time to end of optimisation =       5.3203 seconds


  Peak dynamic memory used =       3.15 MB 


  Timing analysis for GULP :

--------------------------------------------------------------------------------
  Task / Subroutine                                          Time (Seconds)
--------------------------------------------------------------------------------
  Calculation of reciprocal space energy and derivatives          0.1662
  Calculation of reciprocal space energy using symmetry           0.0485
  Calculation of real space energy and derivatives                0.3730
  Calculation of real space energy using symmetry                 1.3687
  Calculation of three-body energy and derivatives                1.7159
  Calculation of four-body energy and derivatives                 1.3183
  Calculation of molecules and connectivity                       0.0247
  Calculation of phonons                                          0.5282
  Calculation and manipulation of Hessian matrix                  0.0083
  Calculation of matrix diagonalisation                           0.0586
  Calculation of matrix inversion                                 0.0027
  Symmetry generation of equivalent positions                     0.0025
  Global summation overhead                                       0.0012
--------------------------------------------------------------------------------
  Total CPU time                                                  5.3204
--------------------------------------------------------------------------------


  LAMMPS file written as test.lmp


  Job Finished at 18:11.22 12th January    2023                               

