********************************************************************************
*                       GENERAL UTILITY LATTICE PROGRAM                        *
*                                 Julian Gale                                  *
*                       Curtin Institute for Computation                       *
*                    School of Molecular and Life Sciences                     *
*                    Curtin University, Western Australia                      *
********************************************************************************
* Version = 6.1.0 * Last modified =  22nd June 2022                            *
********************************************************************************
*  optimise     - perform optimisation run                                     *
*  conv         - constant volume calculation                                  *
*  property     - calculate properties for final geometry                      *
*  phonon       - calculate phonons for final geometry                         *
*  no4duplicate - do not duplicate torsions with wildcard potentials           *
*  molq         - molecule option activated, but with Coulomb terms retained   *
********************************************************************************

  Job Started  at 23:38.05 11th January    2023                               

  Number of CPUs =     1

  Host name      = nhpc101                                 


  Total number of configurations input =      1

********************************************************************************
*  Input for Configuration =   1                                               *
********************************************************************************

  Formula = O8H36N4C32                                                  

  Number of irreducible atoms/shells =      20


  Total number atoms/shells =      80

  Dimensionality = 3               :  Bulk   


  Symmetry :

  Crystal family                   :  Monoclinic  
  Crystal class  (Groth - 1921)    :  Monoclinic Prismatic                 

  Space group (centrosymmetric)    :  P 1 21/C 1      

  Non-standard setting of group    :  P 21/C          

  Patterson group                  :  P 2/m    

  Cartesian lattice vectors (Angstroms) :

        7.073000    0.000000    0.000000
        0.000000    9.166000    0.000000
       -5.455279    0.000000   11.432096

  Cell parameters (Angstroms/Degrees):

  a =       7.0730    alpha =  90.0000
  b =       9.1660    beta  = 115.5100
  c =      12.6670    gamma =  90.0000

  Initial cell volume =         741.155555 Angs**3

  Temperature of configuration =   0.00     K 

  Pressure of configuration =         0.000 GPa 

  Fractional coordinates of asymmetric unit :

--------------------------------------------------------------------------------
   No.  Atomic       x           y          z         Charge      Occupancy
        Label      (Frac)      (Frac)     (Frac)        (e)         (Frac)  
--------------------------------------------------------------------------------
      1 O1    c    0.058700 *  0.424890 *  0.721890 *  -0.49910    1.000000    
      2 H2    c    0.200100 *  0.464700 *  0.742400 *   0.41800    1.000000    
      3 O2    c    0.455500 *  0.992590 *  0.308540 *  -0.59310    1.000000    
      4 N1    c    0.787710 *  0.050160 *  0.339110 *  -0.47210    1.000000    
      5 H3    c    0.891800 *  0.040700 *  0.304900 *   0.31350    1.000000    
      6 C1    c    0.995700 *  0.331620 *  0.629220 *   0.09610    1.000000    
      7 C1    c    0.850400 *  0.142100 *  0.438130 *   0.03560    1.000000    
      8 C1    c    0.756800 *  0.142420 *  0.514740 *  -0.13450    1.000000    
      9 H1    c    0.628400 *  0.070200 *  0.501200 *   0.15300    1.000000    
     10 C1    c    0.829600 *  0.237940 *  0.609960 *  -0.15800    1.000000    
     11 H1    c    0.757800 *  0.236600 *  0.669600 *   0.14350    1.000000    
     12 C3    c    0.583200 *  0.896310 *  0.175600 *  -0.17810    1.000000    
     13 H4    c    0.431600 *  0.914700 *  0.103900 *   0.06870    1.000000    
     14 H4    c    0.706100 *  0.920200 *  0.149900 *   0.06870    1.000000    
     15 H4    c    0.591400 *  0.780900 *  0.197700 *   0.06870    1.000000    
     16 C1    c    0.092100 *  0.329080 *  0.553990 *  -0.15800    1.000000    
     17 H1    c    0.223400 *  0.400000 *  0.569100 *   0.14350    1.000000    
     18 C2    c    0.601700 *  0.984010 *  0.280250 *   0.66510    1.000000    
     19 C1    c    0.019400 *  0.234400 *  0.458940 *  -0.13450    1.000000    
     20 H1    c    0.092300 *  0.233600 *  0.399500 *   0.15300    1.000000    
--------------------------------------------------------------------------------



  Molecule list generated from bond lengths :

  Total number of molecules =     4

--------------------------------------------------------------------------------
Molecule No./:  Atoms
Periodicity  :  
--------------------------------------------------------------------------------
     1  0    : O1   c     1 H2   c     5 O2   c     9 N1   c    13 H3   c    17
             : C1   c    21 C1   c    25 C1   c    29 H1   c    33 C1   c    37
             : H1   c    41 C3   c    45 H4   c    49 H4   c    53 H4   c    57
             : C1   c    61 H1   c    65 C2   c    69 C1   c    73 H1   c    77
     2  0    : O1   c     2 H2   c     6 O2   c    10 N1   c    14 H3   c    18
             : C1   c    22 C1   c    26 C1   c    30 H1   c    34 C1   c    38
             : H1   c    42 C3   c    46 H4   c    50 H4   c    54 H4   c    58
             : C1   c    62 H1   c    66 C2   c    70 C1   c    74 H1   c    78
     3  0    : O1   c     3 H2   c     7 O2   c    11 N1   c    15 H3   c    19
             : C1   c    23 C1   c    27 C1   c    31 H1   c    35 C1   c    39
             : H1   c    43 C3   c    47 H4   c    51 H4   c    55 H4   c    59
             : C1   c    63 H1   c    67 C2   c    71 C1   c    75 H1   c    79
     4  0    : O1   c     4 H2   c     8 O2   c    12 N1   c    16 H3   c    20
             : C1   c    24 C1   c    28 C1   c    32 H1   c    36 C1   c    40
             : H1   c    44 C3   c    48 H4   c    52 H4   c    56 H4   c    60
             : C1   c    64 H1   c    68 C2   c    72 C1   c    76 H1   c    80
--------------------------------------------------------------------------------

  Brillouin zone sampling points :

--------------------------------------------------------------------------------
  Point number          x          y          z            Weight
--------------------------------------------------------------------------------
        1           0.000000   0.000000   0.000000     1.00000000
--------------------------------------------------------------------------------


********************************************************************************
*  General input information                                                   *
********************************************************************************

  Species output for all configurations : 

--------------------------------------------------------------------------------
  Species    Type    Atomic    Atomic    Charge       Radii (Angs)     Library
                     Number     Mass       (e)     Cova   Ionic  VDW   Symbol
--------------------------------------------------------------------------------
    C1       Core        6      12.01   0.000000   0.770  0.000  1.530 C_ca     
    C2       Core        6      12.01   0.000000   0.770  0.000  1.530 C_c      
    C3       Core        6      12.01   0.000000   0.770  0.000  1.530 C_c3     
    H1       Core        1       1.01   0.000000   0.370  0.000  1.080 H_ha     
    H2       Core        1       1.01   0.000000   0.370  0.000  1.080 H_ho     
    H3       Core        1       1.01   0.000000   0.370  0.000  1.080 H_hn     
    H4       Core        1       1.01   0.000000   0.370  0.000  1.080 H_hc     
    O1       Core        8      16.00   0.000000   0.730  0.000  1.360 O_oh     
    O2       Core        8      16.00   0.000000   0.730  0.000  1.360 O_o      
    N1       Core        7      14.01   0.000000   0.750  0.000  1.480 N_n      
    X        Core      107       0.00   0.000000   0.000  0.000  0.000          
--------------------------------------------------------------------------------


  Lattice summation method               =    Ewald          (3-D)
                                         =    Parry          (2-D)
                                         =    Saunders et al (1-D)
  Accuracy factor for lattice sums       =   12.000


  Analytic derivatives to be used

  Time limit = Infinity

  Maximum range for interatomic potentials =        10.000000 Angstroms

  Taper potentials to zero over   2.0000 Angstroms using M-D-F

  General interatomic potentials :

--------------------------------------------------------------------------------
Atom  Types   Potential      Parameter       Value         Units   Cutoffs(Ang)
  1     2                                                            Min /  Max 
--------------------------------------------------------------------------------
H1   c H1   c Lenn/es       Lennard epsilon 0.65046648E-03eV        3Bond 12.000
                            Lennard sigma/m  2.9180000    Ang       
                            Exponent m        12          None
                            Exponent n         6          None
--------------------------------------------------------------------------------
H1   c H4   c Lenn/es       Lennard epsilon 0.66547098E-03eV        3Bond 12.000
                            Lennard sigma/m  2.9460000    Ang       
                            Exponent m        12          None
                            Exponent n         6          None
--------------------------------------------------------------------------------
H4   c H4   c Lenn/es       Lennard epsilon 0.68082158E-03eV        3Bond 12.000
                            Lennard sigma/m  2.9740000    Ang       
                            Exponent m        12          None
                            Exponent n         6          None
--------------------------------------------------------------------------------
H1   c H3   c Lenn/es       Lennard epsilon 0.66547098E-03eV        3Bond 12.000
                            Lennard sigma/m  2.0590000    Ang       
                            Exponent m        12          None
                            Exponent n         6          None
--------------------------------------------------------------------------------
H3   c H4   c Lenn/es       Lennard epsilon 0.68082158E-03eV        3Bond 12.000
                            Lennard sigma/m  2.0870000    Ang       
                            Exponent m        12          None
                            Exponent n         6          None
--------------------------------------------------------------------------------
H3   c H3   c Lenn/es       Lennard epsilon 0.68082158E-03eV        3Bond 12.000
                            Lennard sigma/m  1.2000000    Ang       
                            Exponent m        12          None
                            Exponent n         6          None
--------------------------------------------------------------------------------
H1   c H2   c Lenn/es       Lennard epsilon  0.0000000    eV        3Bond 12.000
                            Lennard sigma/m  1.4590000    Ang       
                            Exponent m        12          None
                            Exponent n         6          None
--------------------------------------------------------------------------------
H2   c H4   c Lenn/es       Lennard epsilon  0.0000000    eV        3Bond 12.000
                            Lennard sigma/m  1.4870000    Ang       
                            Exponent m        12          None
                            Exponent n         6          None
--------------------------------------------------------------------------------
H2   c H3   c Lenn/es       Lennard epsilon  0.0000000    eV        3Bond 12.000
                            Lennard sigma/m 0.60000000    Ang       
                            Exponent m        12          None
                            Exponent n         6          None
--------------------------------------------------------------------------------
H2   c H2   c Lenn/es       Lennard epsilon  0.0000000    eV        3Bond 12.000
                            Lennard sigma/m  0.0000000    Ang       
                            Exponent m        12          None
                            Exponent n         6          None
--------------------------------------------------------------------------------
H1   c O2   c Lenn/es       Lennard epsilon 0.24338227E-02eV        3Bond 12.000
                            Lennard sigma/m  3.1202000    Ang       
                            Exponent m        12          None
                            Exponent n         6          None
--------------------------------------------------------------------------------
H4   c O2   c Lenn/es       Lennard epsilon 0.24899644E-02eV        3Bond 12.000
                            Lennard sigma/m  3.1482000    Ang       
                            Exponent m        12          None
                            Exponent n         6          None
--------------------------------------------------------------------------------
H3   c O2   c Lenn/es       Lennard epsilon 0.24899644E-02eV        3Bond 12.000
                            Lennard sigma/m  2.2612000    Ang       
                            Exponent m        12          None
                            Exponent n         6          None
--------------------------------------------------------------------------------
H2   c O2   c Lenn/es       Lennard epsilon  0.0000000    eV        3Bond 12.000
                            Lennard sigma/m  1.6612000    Ang       
                            Exponent m        12          None
                            Exponent n         6          None
--------------------------------------------------------------------------------
O2   c O2   c Lenn/es       Lennard epsilon 0.91065307E-02eV        3Bond 12.000
                            Lennard sigma/m  3.3224000    Ang       
                            Exponent m        12          None
                            Exponent n         6          None
--------------------------------------------------------------------------------
H1   c O1   c Lenn/es       Lennard epsilon 0.24361395E-02eV        3Bond 12.000
                            Lennard sigma/m  3.1800000    Ang       
                            Exponent m        12          None
                            Exponent n         6          None
--------------------------------------------------------------------------------
H4   c O1   c Lenn/es       Lennard epsilon 0.24923347E-02eV        3Bond 12.000
                            Lennard sigma/m  3.2080000    Ang       
                            Exponent m        12          None
                            Exponent n         6          None
--------------------------------------------------------------------------------
H3   c O1   c Lenn/es       Lennard epsilon 0.24923347E-02eV        3Bond 12.000
                            Lennard sigma/m  2.3210000    Ang       
                            Exponent m        12          None
                            Exponent n         6          None
--------------------------------------------------------------------------------
H2   c O1   c Lenn/es       Lennard epsilon  0.0000000    eV        3Bond 12.000
                            Lennard sigma/m  1.7210000    Ang       
                            Exponent m        12          None
                            Exponent n         6          None
--------------------------------------------------------------------------------
O1   c O2   c Lenn/es       Lennard epsilon 0.91151995E-02eV        3Bond 12.000
                            Lennard sigma/m  3.3822000    Ang       
                            Exponent m        12          None
                            Exponent n         6          None
--------------------------------------------------------------------------------
O1   c O1   c Lenn/es       Lennard epsilon 0.91238765E-02eV        3Bond 12.000
                            Lennard sigma/m  3.4420000    Ang       
                            Exponent m        12          None
                            Exponent n         6          None
--------------------------------------------------------------------------------
H1   c C2   c Lenn/es       Lennard epsilon 0.15575017E-02eV        3Bond 12.000
                            Lennard sigma/m  3.3670000    Ang       
                            Exponent m        12          None
                            Exponent n         6          None
--------------------------------------------------------------------------------
H4   c C2   c Lenn/es       Lennard epsilon 0.15934290E-02eV        3Bond 12.000
                            Lennard sigma/m  3.3950000    Ang       
                            Exponent m        12          None
                            Exponent n         6          None
--------------------------------------------------------------------------------
H3   c C2   c Lenn/es       Lennard epsilon 0.15934290E-02eV        3Bond 12.000
                            Lennard sigma/m  2.5080000    Ang       
                            Exponent m        12          None
                            Exponent n         6          None
--------------------------------------------------------------------------------
H2   c C2   c Lenn/es       Lennard epsilon  0.0000000    eV        3Bond 12.000
                            Lennard sigma/m  1.9080000    Ang       
                            Exponent m        12          None
                            Exponent n         6          None
--------------------------------------------------------------------------------
C2   c O2   c Lenn/es       Lennard epsilon 0.58276376E-02eV        3Bond 12.000
                            Lennard sigma/m  3.5692000    Ang       
                            Exponent m        12          None
                            Exponent n         6          None
--------------------------------------------------------------------------------
C2   c O1   c Lenn/es       Lennard epsilon 0.58331851E-02eV        3Bond 12.000
                            Lennard sigma/m  3.6290000    Ang       
                            Exponent m        12          None
                            Exponent n         6          None
--------------------------------------------------------------------------------
C2   c C2   c Lenn/es       Lennard epsilon 0.37293412E-02eV        3Bond 12.000
                            Lennard sigma/m  3.8160000    Ang       
                            Exponent m        12          None
                            Exponent n         6          None
--------------------------------------------------------------------------------
H1   c C3   c Lenn/es       Lennard epsilon 0.17566610E-02eV        3Bond 12.000
                            Lennard sigma/m  3.3670000    Ang       
                            Exponent m        12          None
                            Exponent n         6          None
--------------------------------------------------------------------------------
H4   c C3   c Lenn/es       Lennard epsilon 0.17971824E-02eV        3Bond 12.000
                            Lennard sigma/m  3.3950000    Ang       
                            Exponent m        12          None
                            Exponent n         6          None
--------------------------------------------------------------------------------
H3   c C3   c Lenn/es       Lennard epsilon 0.17971824E-02eV        3Bond 12.000
                            Lennard sigma/m  2.5080000    Ang       
                            Exponent m        12          None
                            Exponent n         6          None
--------------------------------------------------------------------------------
H2   c C3   c Lenn/es       Lennard epsilon  0.0000000    eV        3Bond 12.000
                            Lennard sigma/m  1.9080000    Ang       
                            Exponent m        12          None
                            Exponent n         6          None
--------------------------------------------------------------------------------
C3   c O2   c Lenn/es       Lennard epsilon 0.65728235E-02eV        3Bond 12.000
                            Lennard sigma/m  3.5692000    Ang       
                            Exponent m        12          None
                            Exponent n         6          None
--------------------------------------------------------------------------------
C3   c O1   c Lenn/es       Lennard epsilon 0.65790804E-02eV        3Bond 12.000
                            Lennard sigma/m  3.6290000    Ang       
                            Exponent m        12          None
                            Exponent n         6          None
--------------------------------------------------------------------------------
C2   c C3   c Lenn/es       Lennard epsilon 0.42062158E-02eV        3Bond 12.000
                            Lennard sigma/m  3.8160000    Ang       
                            Exponent m        12          None
                            Exponent n         6          None
--------------------------------------------------------------------------------
C3   c C3   c Lenn/es       Lennard epsilon 0.47440689E-02eV        3Bond 12.000
                            Lennard sigma/m  3.8160000    Ang       
                            Exponent m        12          None
                            Exponent n         6          None
--------------------------------------------------------------------------------
H1   c C1   c Lenn/es       Lennard epsilon 0.15575017E-02eV        3Bond 12.000
                            Lennard sigma/m  3.3670000    Ang       
                            Exponent m        12          None
                            Exponent n         6          None
--------------------------------------------------------------------------------
H4   c C1   c Lenn/es       Lennard epsilon 0.15934290E-02eV        3Bond 12.000
                            Lennard sigma/m  3.3950000    Ang       
                            Exponent m        12          None
                            Exponent n         6          None
--------------------------------------------------------------------------------
H3   c C1   c Lenn/es       Lennard epsilon 0.15934290E-02eV        3Bond 12.000
                            Lennard sigma/m  2.5080000    Ang       
                            Exponent m        12          None
                            Exponent n         6          None
--------------------------------------------------------------------------------
H2   c C1   c Lenn/es       Lennard epsilon  0.0000000    eV        3Bond 12.000
                            Lennard sigma/m  1.9080000    Ang       
                            Exponent m        12          None
                            Exponent n         6          None
--------------------------------------------------------------------------------
C1   c O2   c Lenn/es       Lennard epsilon 0.58276376E-02eV        3Bond 12.000
                            Lennard sigma/m  3.5692000    Ang       
                            Exponent m        12          None
                            Exponent n         6          None
--------------------------------------------------------------------------------
C1   c O1   c Lenn/es       Lennard epsilon 0.58331851E-02eV        3Bond 12.000
                            Lennard sigma/m  3.6290000    Ang       
                            Exponent m        12          None
                            Exponent n         6          None
--------------------------------------------------------------------------------
C1   c C2   c Lenn/es       Lennard epsilon 0.37293412E-02eV        3Bond 12.000
                            Lennard sigma/m  3.8160000    Ang       
                            Exponent m        12          None
                            Exponent n         6          None
--------------------------------------------------------------------------------
C1   c C3   c Lenn/es       Lennard epsilon 0.42062158E-02eV        3Bond 12.000
                            Lennard sigma/m  3.8160000    Ang       
                            Exponent m        12          None
                            Exponent n         6          None
--------------------------------------------------------------------------------
C1   c C1   c Lenn/es       Lennard epsilon 0.37293412E-02eV        3Bond 12.000
                            Lennard sigma/m  3.8160000    Ang       
                            Exponent m        12          None
                            Exponent n         6          None
--------------------------------------------------------------------------------
H1   c N1   c Lenn/es       Lennard epsilon 0.21897965E-02eV        3Bond 12.000
                            Lennard sigma/m  3.2830000    Ang       
                            Exponent m        12          None
                            Exponent n         6          None
--------------------------------------------------------------------------------
H4   c N1   c Lenn/es       Lennard epsilon 0.22403091E-02eV        3Bond 12.000
                            Lennard sigma/m  3.3110000    Ang       
                            Exponent m        12          None
                            Exponent n         6          None
--------------------------------------------------------------------------------
H3   c N1   c Lenn/es       Lennard epsilon 0.22403091E-02eV        3Bond 12.000
                            Lennard sigma/m  2.4240000    Ang       
                            Exponent m        12          None
                            Exponent n         6          None
--------------------------------------------------------------------------------
H2   c N1   c Lenn/es       Lennard epsilon  0.0000000    eV        3Bond 12.000
                            Lennard sigma/m  1.8240000    Ang       
                            Exponent m        12          None
                            Exponent n         6          None
--------------------------------------------------------------------------------
N1   c O2   c Lenn/es       Lennard epsilon 0.81934682E-02eV        3Bond 12.000
                            Lennard sigma/m  3.4852000    Ang       
                            Exponent m        12          None
                            Exponent n         6          None
--------------------------------------------------------------------------------
N1   c O1   c Lenn/es       Lennard epsilon 0.82012678E-02eV        3Bond 12.000
                            Lennard sigma/m  3.5450000    Ang       
                            Exponent m        12          None
                            Exponent n         6          None
--------------------------------------------------------------------------------
C2   c N1   c Lenn/es       Lennard epsilon 0.52433319E-02eV        3Bond 12.000
                            Lennard sigma/m  3.7320000    Ang       
                            Exponent m        12          None
                            Exponent n         6          None
--------------------------------------------------------------------------------
C3   c N1   c Lenn/es       Lennard epsilon 0.59138021E-02eV        3Bond 12.000
                            Lennard sigma/m  3.7320000    Ang       
                            Exponent m        12          None
                            Exponent n         6          None
--------------------------------------------------------------------------------
C1   c N1   c Lenn/es       Lennard epsilon 0.52433319E-02eV        3Bond 12.000
                            Lennard sigma/m  3.7320000    Ang       
                            Exponent m        12          None
                            Exponent n         6          None
--------------------------------------------------------------------------------
N1   c N1   c Lenn/es       Lennard epsilon 0.73719534E-02eV        3Bond 12.000
                            Lennard sigma/m  3.6480000    Ang       
                            Exponent m        12          None
                            Exponent n         6          None
--------------------------------------------------------------------------------

  Intramolecular potentials :

--------------------------------------------------------------------------------
Atom  Types   Potential      Parameter       Value         Units   Cutoffs(Ang)
  1     2                                                            Min /  Max 
--------------------------------------------------------------------------------
C2   c C2   c Harmonic      Harmonic k2      25.160043    eV*Ang^-2 0.000 1 Bond
                            Harmonic r0      1.5500000    Ang       
                            Harmonic k3      0.0000000    eV*Ang^-3 
                            Harmonic k4      0.0000000    eV*Ang^-4 
--------------------------------------------------------------------------------
C2   c C3   c Harmonic      Harmonic k2      28.473086    eV*Ang^-2 0.000 1 Bond
                            Harmonic r0      1.5080000    Ang       
                            Harmonic k3      0.0000000    eV*Ang^-3 
                            Harmonic k4      0.0000000    eV*Ang^-4 
--------------------------------------------------------------------------------
C1   c C2   c Harmonic      Harmonic k2      30.329084    eV*Ang^-2 0.000 1 Bond
                            Harmonic r0      1.4870000    Ang       
                            Harmonic k3      0.0000000    eV*Ang^-3 
                            Harmonic k4      0.0000000    eV*Ang^-4 
--------------------------------------------------------------------------------
H1   c C2   c Harmonic      Harmonic k2      28.195554    eV*Ang^-2 0.000 1 Bond
                            Harmonic r0      1.1010000    Ang       
                            Harmonic k3      0.0000000    eV*Ang^-3 
                            Harmonic k4      0.0000000    eV*Ang^-4 
--------------------------------------------------------------------------------
C2   c N1   c Harmonic      Harmonic k2      41.473743    eV*Ang^-2 0.000 1 Bond
                            Harmonic r0      1.3450000    Ang       
                            Harmonic k3      0.0000000    eV*Ang^-3 
                            Harmonic k4      0.0000000    eV*Ang^-4 
--------------------------------------------------------------------------------
C2   c O2   c Harmonic      Harmonic k2      56.200304    eV*Ang^-2 0.000 1 Bond
                            Harmonic r0      1.2140000    Ang       
                            Harmonic k3      0.0000000    eV*Ang^-3 
                            Harmonic k4      0.0000000    eV*Ang^-4 
--------------------------------------------------------------------------------
C2   c O1   c Harmonic      Harmonic k2      40.450342    eV*Ang^-2 0.000 1 Bond
                            Harmonic r0      1.3060000    Ang       
                            Harmonic k3      0.0000000    eV*Ang^-3 
                            Harmonic k4      0.0000000    eV*Ang^-4 
--------------------------------------------------------------------------------
C3   c C3   c Harmonic      Harmonic k2      26.287519    eV*Ang^-2 0.000 1 Bond
                            Harmonic r0      1.5350000    Ang       
                            Harmonic k3      0.0000000    eV*Ang^-3 
                            Harmonic k4      0.0000000    eV*Ang^-4 
--------------------------------------------------------------------------------
C1   c C3   c Harmonic      Harmonic k2      28.056788    eV*Ang^-2 0.000 1 Bond
                            Harmonic r0      1.5130000    Ang       
                            Harmonic k3      0.0000000    eV*Ang^-3 
                            Harmonic k4      0.0000000    eV*Ang^-4 
--------------------------------------------------------------------------------
H4   c C3   c Harmonic      Harmonic k2      29.253646    eV*Ang^-2 0.000 1 Bond
                            Harmonic r0      1.0920000    Ang       
                            Harmonic k3      0.0000000    eV*Ang^-3 
                            Harmonic k4      0.0000000    eV*Ang^-4 
--------------------------------------------------------------------------------
C3   c N1   c Harmonic      Harmonic k2      28.672562    eV*Ang^-2 0.000 1 Bond
                            Harmonic r0      1.4600000    Ang       
                            Harmonic k3      0.0000000    eV*Ang^-3 
                            Harmonic k4      0.0000000    eV*Ang^-4 
--------------------------------------------------------------------------------
C3   c O2   c Harmonic      Harmonic k2      36.651618    eV*Ang^-2 0.000 1 Bond
                            Harmonic r0      1.3350000    Ang       
                            Harmonic k3      0.0000000    eV*Ang^-3 
                            Harmonic k4      0.0000000    eV*Ang^-4 
--------------------------------------------------------------------------------
C3   c O1   c Harmonic      Harmonic k2      27.241536    eV*Ang^-2 0.000 1 Bond
                            Harmonic r0      1.4260000    Ang       
                            Harmonic k3      0.0000000    eV*Ang^-3 
                            Harmonic k4      0.0000000    eV*Ang^-4 
--------------------------------------------------------------------------------
C1   c C1   c Harmonic      Harmonic k2      41.491089    eV*Ang^-2 0.000 1 Bond
                            Harmonic r0      1.3870000    Ang       
                            Harmonic k3      0.0000000    eV*Ang^-3 
                            Harmonic k4      0.0000000    eV*Ang^-4 
--------------------------------------------------------------------------------
H1   c C1   c Harmonic      Harmonic k2      29.860748    eV*Ang^-2 0.000 1 Bond
                            Harmonic r0      1.0870000    Ang       
                            Harmonic k3      0.0000000    eV*Ang^-3 
                            Harmonic k4      0.0000000    eV*Ang^-4 
--------------------------------------------------------------------------------
C1   c N1   c Harmonic      Harmonic k2      32.289156    eV*Ang^-2 0.000 1 Bond
                            Harmonic r0      1.4220000    Ang       
                            Harmonic k3      0.0000000    eV*Ang^-3 
                            Harmonic k4      0.0000000    eV*Ang^-4 
--------------------------------------------------------------------------------
C1   c O2   c Harmonic      Harmonic k2      45.072991    eV*Ang^-2 0.000 1 Bond
                            Harmonic r0      1.2750000    Ang       
                            Harmonic k3      0.0000000    eV*Ang^-3 
                            Harmonic k4      0.0000000    eV*Ang^-4 
--------------------------------------------------------------------------------
C1   c O1   c Harmonic      Harmonic k2      33.486014    eV*Ang^-2 0.000 1 Bond
                            Harmonic r0      1.3620000    Ang       
                            Harmonic k3      0.0000000    eV*Ang^-3 
                            Harmonic k4      0.0000000    eV*Ang^-4 
--------------------------------------------------------------------------------
H3   c N1   c Harmonic      Harmonic k2      35.576180    eV*Ang^-2 0.000 1 Bond
                            Harmonic r0      1.0090000    Ang       
                            Harmonic k3      0.0000000    eV*Ang^-3 
                            Harmonic k4      0.0000000    eV*Ang^-4 
--------------------------------------------------------------------------------
H2   c O2   c Harmonic      Harmonic k2      31.040260    eV*Ang^-2 0.000 1 Bond
                            Harmonic r0     0.98100000    Ang       
                            Harmonic k3      0.0000000    eV*Ang^-3 
                            Harmonic k4      0.0000000    eV*Ang^-4 
--------------------------------------------------------------------------------
H2   c O1   c Harmonic      Harmonic k2      32.054988    eV*Ang^-2 0.000 1 Bond
                            Harmonic r0     0.97400000    Ang       
                            Harmonic k3      0.0000000    eV*Ang^-3 
                            Harmonic k4      0.0000000    eV*Ang^-4 
--------------------------------------------------------------------------------
N1   c N1   c Harmonic      Harmonic k2      40.736547    eV*Ang^-2 0.000 1 Bond
                            Harmonic r0      1.3900000    Ang       
                            Harmonic k3      0.0000000    eV*Ang^-3 
                            Harmonic k4      0.0000000    eV*Ang^-4 
--------------------------------------------------------------------------------
N1   c O2   c Harmonic      Harmonic k2      56.078884    eV*Ang^-2 0.000 1 Bond
                            Harmonic r0      1.2640000    Ang       
                            Harmonic k3      0.0000000    eV*Ang^-3 
                            Harmonic k4      0.0000000    eV*Ang^-4 
--------------------------------------------------------------------------------
N1   c O1   c Harmonic      Harmonic k2      34.292593    eV*Ang^-2 0.000 1 Bond
                            Harmonic r0      1.4100000    Ang       
                            Harmonic k3      0.0000000    eV*Ang^-3 
                            Harmonic k4      0.0000000    eV*Ang^-4 
--------------------------------------------------------------------------------
O2   c O2   c Harmonic      Harmonic k2      33.329902    eV*Ang^-2 0.000 1 Bond
                            Harmonic r0      1.4300000    Ang       
                            Harmonic k3      0.0000000    eV*Ang^-3 
                            Harmonic k4      0.0000000    eV*Ang^-4 
--------------------------------------------------------------------------------
O1   c O2   c Harmonic      Harmonic k2      25.550323    eV*Ang^-2 0.000 1 Bond
                            Harmonic r0      1.5170000    Ang       
                            Harmonic k3      0.0000000    eV*Ang^-3 
                            Harmonic k4      0.0000000    eV*Ang^-4 
--------------------------------------------------------------------------------
O1   c O1   c Harmonic      Harmonic k2      29.531178    eV*Ang^-2 0.000 1 Bond
                            Harmonic r0      1.4690000    Ang       
                            Harmonic k3      0.0000000    eV*Ang^-3 
                            Harmonic k4      0.0000000    eV*Ang^-4 
--------------------------------------------------------------------------------
X    c X    c Coulomb_sub   Coulomb sub      1.0000000    None      1-4only 7.00
--------------------------------------------------------------------------------

  Intramolecular Three-body potentials :

--------------------------------------------------------------------------------
  Atoms       Potential      Parameter       Value         Units   Cutoffs(Ang)
  1 / 2 / 3                                                          Min /  Max 
--------------------------------------------------------------------------------
C2    core    Harmonic      Three-body cnst  5.4032082    eV*rad^-2 0.000 1 Bond
C2    core                  Three-body angl  111.68000    degrees   0.000 1 Bond
C2    core                  Three-body k4    0.0000000    eV*rad^-4 0.000 1 Bond
                            Three-body k3    0.0000000    eV*rad^-3 
--------------------------------------------------------------------------------
C2    core    Harmonic      Three-body cnst  5.3511709    eV*rad^-2 0.000 1 Bond
C2    core                  Three-body angl  116.86000    degrees   0.000 1 Bond
C3    core                  Three-body k4    0.0000000    eV*rad^-4 0.000 1 Bond
                            Three-body k3    0.0000000    eV*rad^-3 
--------------------------------------------------------------------------------
C2    core    Harmonic      Three-body cnst  3.8854531    eV*rad^-2 0.000 1 Bond
H1    core                  Three-body angl  115.43000    degrees   0.000 1 Bond
C2    core                  Three-body k4    0.0000000    eV*rad^-4 0.000 1 Bond
                            Three-body k3    0.0000000    eV*rad^-3 
--------------------------------------------------------------------------------
C2    core    Harmonic      Three-body cnst  3.8681073    eV*rad^-2 0.000 1 Bond
H4    core                  Three-body angl  117.08000    degrees   0.000 1 Bond
C2    core                  Three-body k4    0.0000000    eV*rad^-4 0.000 1 Bond
                            Three-body k3    0.0000000    eV*rad^-3 
--------------------------------------------------------------------------------
C2    core    Harmonic      Three-body cnst  6.0623476    eV*rad^-2 0.000 1 Bond
C2    core                  Three-body angl  104.81000    degrees   0.000 1 Bond
N1    core                  Three-body k4    0.0000000    eV*rad^-4 0.000 1 Bond
                            Three-body k3    0.0000000    eV*rad^-3 
--------------------------------------------------------------------------------
C2    core    Harmonic      Three-body cnst  5.7934881    eV*rad^-2 0.000 1 Bond
C2    core                  Three-body angl  122.34000    degrees   0.000 1 Bond
O2    core                  Three-body k4    0.0000000    eV*rad^-4 0.000 1 Bond
                            Three-body k3    0.0000000    eV*rad^-3 
--------------------------------------------------------------------------------
C2    core    Harmonic      Three-body cnst  5.9149085    eV*rad^-2 0.000 1 Bond
C2    core                  Three-body angl  113.23000    degrees   0.000 1 Bond
O1    core                  Three-body k4    0.0000000    eV*rad^-4 0.000 1 Bond
                            Three-body k3    0.0000000    eV*rad^-3 
--------------------------------------------------------------------------------
C2    core    Harmonic      Three-body cnst  5.4465727    eV*rad^-2 0.000 1 Bond
C3    core                  Three-body angl  116.05000    degrees   0.000 1 Bond
C3    core                  Three-body k4    0.0000000    eV*rad^-4 0.000 1 Bond
                            Three-body k3    0.0000000    eV*rad^-3 
--------------------------------------------------------------------------------
C2    core    Harmonic      Three-body cnst  5.4032082    eV*rad^-2 0.000 1 Bond
C1    core                  Three-body angl  119.53000    degrees   0.000 1 Bond
C3    core                  Three-body k4    0.0000000    eV*rad^-4 0.000 1 Bond
                            Three-body k3    0.0000000    eV*rad^-3 
--------------------------------------------------------------------------------
C2    core    Harmonic      Three-body cnst  3.9895277    eV*rad^-2 0.000 1 Bond
H1    core                  Three-body angl  115.22000    degrees   0.000 1 Bond
C3    core                  Three-body k4    0.0000000    eV*rad^-4 0.000 1 Bond
                            Three-body k3    0.0000000    eV*rad^-3 
--------------------------------------------------------------------------------
C2    core    Harmonic      Three-body cnst  5.8888899    eV*rad^-2 0.000 1 Bond
C3    core                  Three-body angl  115.15000    degrees   0.000 1 Bond
N1    core                  Three-body k4    0.0000000    eV*rad^-4 0.000 1 Bond
                            Three-body k3    0.0000000    eV*rad^-3 
--------------------------------------------------------------------------------
C2    core    Harmonic      Three-body cnst  5.8975628    eV*rad^-2 0.000 1 Bond
C3    core                  Three-body angl  123.11000    degrees   0.000 1 Bond
O2    core                  Three-body k4    0.0000000    eV*rad^-4 0.000 1 Bond
                            Three-body k3    0.0000000    eV*rad^-3 
--------------------------------------------------------------------------------
C2    core    Harmonic      Three-body cnst  6.0536747    eV*rad^-2 0.000 1 Bond
C3    core                  Three-body angl  112.20000    degrees   0.000 1 Bond
O1    core                  Three-body k4    0.0000000    eV*rad^-4 0.000 1 Bond
                            Three-body k3    0.0000000    eV*rad^-3 
--------------------------------------------------------------------------------
C2    core    Harmonic      Three-body cnst  5.4465727    eV*rad^-2 0.000 1 Bond
C1    core                  Three-body angl  119.53000    degrees   0.000 1 Bond
C1    core                  Three-body k4    0.0000000    eV*rad^-4 0.000 1 Bond
                            Three-body k3    0.0000000    eV*rad^-3 
--------------------------------------------------------------------------------
C2    core    Harmonic      Three-body cnst  4.0589108    eV*rad^-2 0.000 1 Bond
H1    core                  Three-body angl  114.12000    degrees   0.000 1 Bond
C1    core                  Three-body k4    0.0000000    eV*rad^-4 0.000 1 Bond
                            Three-body k3    0.0000000    eV*rad^-3 
--------------------------------------------------------------------------------
C2    core    Harmonic      Three-body cnst  6.0189832    eV*rad^-2 0.000 1 Bond
C1    core                  Three-body angl  112.03000    degrees   0.000 1 Bond
N1    core                  Three-body k4    0.0000000    eV*rad^-4 0.000 1 Bond
                            Three-body k3    0.0000000    eV*rad^-3 
--------------------------------------------------------------------------------
C2    core    Harmonic      Three-body cnst  5.9582730    eV*rad^-2 0.000 1 Bond
C1    core                  Three-body angl  123.44000    degrees   0.000 1 Bond
O2    core                  Three-body k4    0.0000000    eV*rad^-4 0.000 1 Bond
                            Three-body k3    0.0000000    eV*rad^-3 
--------------------------------------------------------------------------------
C2    core    Harmonic      Three-body cnst  6.0276561    eV*rad^-2 0.000 1 Bond
C1    core                  Three-body angl  115.46000    degrees   0.000 1 Bond
O1    core                  Three-body k4    0.0000000    eV*rad^-4 0.000 1 Bond
                            Three-body k3    0.0000000    eV*rad^-3 
--------------------------------------------------------------------------------
C2    core    Harmonic      Three-body cnst  3.2870239    eV*rad^-2 0.000 1 Bond
H1    core                  Three-body angl  115.61000    degrees   0.000 1 Bond
H1    core                  Three-body k4    0.0000000    eV*rad^-4 0.000 1 Bond
                            Three-body k3    0.0000000    eV*rad^-3 
--------------------------------------------------------------------------------
C2    core    Harmonic      Three-body cnst  4.5445925    eV*rad^-2 0.000 1 Bond
H1    core                  Three-body angl  112.37000    degrees   0.000 1 Bond
N1    core                  Three-body k4    0.0000000    eV*rad^-4 0.000 1 Bond
                            Three-body k3    0.0000000    eV*rad^-3 
--------------------------------------------------------------------------------
C2    core    Harmonic      Three-body cnst  4.7093773    eV*rad^-2 0.000 1 Bond
H1    core                  Three-body angl  121.94000    degrees   0.000 1 Bond
O2    core                  Three-body k4    0.0000000    eV*rad^-4 0.000 1 Bond
                            Three-body k3    0.0000000    eV*rad^-3 
--------------------------------------------------------------------------------
C2    core    Harmonic      Three-body cnst  4.6833587    eV*rad^-2 0.000 1 Bond
H1    core                  Three-body angl  111.82000    degrees   0.000 1 Bond
O1    core                  Three-body k4    0.0000000    eV*rad^-4 0.000 1 Bond
                            Three-body k3    0.0000000    eV*rad^-3 
--------------------------------------------------------------------------------
C2    core    Harmonic      Three-body cnst  3.4084444    eV*rad^-2 0.000 1 Bond
H4    core                  Three-body angl  115.68000    degrees   0.000 1 Bond
H4    core                  Three-body k4    0.0000000    eV*rad^-4 0.000 1 Bond
                            Three-body k3    0.0000000    eV*rad^-3 
--------------------------------------------------------------------------------
C2    core    Harmonic      Three-body cnst  4.4318450    eV*rad^-2 0.000 1 Bond
H4    core                  Three-body angl  120.00000    degrees   0.000 1 Bond
N1    core                  Three-body k4    0.0000000    eV*rad^-4 0.000 1 Bond
                            Three-body k3    0.0000000    eV*rad^-3 
--------------------------------------------------------------------------------
C2    core    Harmonic      Three-body cnst  4.8047791    eV*rad^-2 0.000 1 Bond
H4    core                  Three-body angl  120.00000    degrees   0.000 1 Bond
O2    core                  Three-body k4    0.0000000    eV*rad^-4 0.000 1 Bond
                            Three-body k3    0.0000000    eV*rad^-3 
--------------------------------------------------------------------------------
C2    core    Harmonic      Three-body cnst  4.6920315    eV*rad^-2 0.000 1 Bond
H4    core                  Three-body angl  113.70000    degrees   0.000 1 Bond
O1    core                  Three-body k4    0.0000000    eV*rad^-4 0.000 1 Bond
                            Three-body k3    0.0000000    eV*rad^-3 
--------------------------------------------------------------------------------
C2    core    Harmonic      Three-body cnst  6.5393564    eV*rad^-2 0.000 1 Bond
N1    core                  Three-body angl  111.70000    degrees   0.000 1 Bond
N1    core                  Three-body k4    0.0000000    eV*rad^-4 0.000 1 Bond
                            Three-body k3    0.0000000    eV*rad^-3 
--------------------------------------------------------------------------------
C2    core    Harmonic      Three-body cnst  6.5740479    eV*rad^-2 0.000 1 Bond
N1    core                  Three-body angl  122.03000    degrees   0.000 1 Bond
O2    core                  Three-body k4    0.0000000    eV*rad^-4 0.000 1 Bond
                            Three-body k3    0.0000000    eV*rad^-3 
--------------------------------------------------------------------------------
C2    core    Harmonic      Three-body cnst  6.8602531    eV*rad^-2 0.000 1 Bond
O2    core                  Three-body angl  127.33000    degrees   0.000 1 Bond
O2    core                  Three-body k4    0.0000000    eV*rad^-4 0.000 1 Bond
                            Three-body k3    0.0000000    eV*rad^-3 
--------------------------------------------------------------------------------
C2    core    Harmonic      Three-body cnst  6.7128141    eV*rad^-2 0.000 1 Bond
O1    core                  Three-body angl  122.88000    degrees   0.000 1 Bond
O2    core                  Three-body k4    0.0000000    eV*rad^-4 0.000 1 Bond
                            Three-body k3    0.0000000    eV*rad^-3 
--------------------------------------------------------------------------------
C2    core    Harmonic      Three-body cnst  6.8429074    eV*rad^-2 0.000 1 Bond
O1    core                  Three-body angl  110.56000    degrees   0.000 1 Bond
O1    core                  Three-body k4    0.0000000    eV*rad^-4 0.000 1 Bond
                            Three-body k3    0.0000000    eV*rad^-3 
--------------------------------------------------------------------------------
C3    core    Harmonic      Three-body cnst  5.5246286    eV*rad^-2 0.000 1 Bond
C2    core                  Three-body angl  112.95000    degrees   0.000 1 Bond
C2    core                  Three-body k4    0.0000000    eV*rad^-4 0.000 1 Bond
                            Three-body k3    0.0000000    eV*rad^-3 
--------------------------------------------------------------------------------
C3    core    Harmonic      Three-body cnst  5.5333015    eV*rad^-2 0.000 1 Bond
C2    core                  Three-body angl  110.53000    degrees   0.000 1 Bond
C3    core                  Three-body k4    0.0000000    eV*rad^-4 0.000 1 Bond
                            Three-body k3    0.0000000    eV*rad^-3 
--------------------------------------------------------------------------------
C3    core    Harmonic      Three-body cnst  5.5593202    eV*rad^-2 0.000 1 Bond
C1    core                  Three-body angl  111.23000    degrees   0.000 1 Bond
C2    core                  Three-body k4    0.0000000    eV*rad^-4 0.000 1 Bond
                            Three-body k3    0.0000000    eV*rad^-3 
--------------------------------------------------------------------------------
C3    core    Harmonic      Three-body cnst  4.0936024    eV*rad^-2 0.000 1 Bond
H4    core                  Three-body angl  109.68000    degrees   0.000 1 Bond
C2    core                  Three-body k4    0.0000000    eV*rad^-4 0.000 1 Bond
                            Three-body k3    0.0000000    eV*rad^-3 
--------------------------------------------------------------------------------
C3    core    Harmonic      Three-body cnst  5.7848152    eV*rad^-2 0.000 1 Bond
C2    core                  Three-body angl  111.56000    degrees   0.000 1 Bond
N1    core                  Three-body k4    0.0000000    eV*rad^-4 0.000 1 Bond
                            Three-body k3    0.0000000    eV*rad^-3 
--------------------------------------------------------------------------------
C3    core    Harmonic      Three-body cnst  5.9322543    eV*rad^-2 0.000 1 Bond
C2    core                  Three-body angl  109.46000    degrees   0.000 1 Bond
O1    core                  Three-body k4    0.0000000    eV*rad^-4 0.000 1 Bond
                            Three-body k3    0.0000000    eV*rad^-3 
--------------------------------------------------------------------------------
C3    core    Harmonic      Three-body cnst  5.4812642    eV*rad^-2 0.000 1 Bond
C3    core                  Three-body angl  110.63000    degrees   0.000 1 Bond
C3    core                  Three-body k4    0.0000000    eV*rad^-4 0.000 1 Bond
                            Three-body k3    0.0000000    eV*rad^-3 
--------------------------------------------------------------------------------
C3    core    Harmonic      Three-body cnst  5.4205540    eV*rad^-2 0.000 1 Bond
C1    core                  Three-body angl  114.61000    degrees   0.000 1 Bond
C3    core                  Three-body k4    0.0000000    eV*rad^-4 0.000 1 Bond
                            Three-body k3    0.0000000    eV*rad^-3 
--------------------------------------------------------------------------------
C3    core    Harmonic      Three-body cnst  4.0242193    eV*rad^-2 0.000 1 Bond
H4    core                  Three-body angl  110.05000    degrees   0.000 1 Bond
C3    core                  Three-body k4    0.0000000    eV*rad^-4 0.000 1 Bond
                            Three-body k3    0.0000000    eV*rad^-3 
--------------------------------------------------------------------------------
C3    core    Harmonic      Three-body cnst  5.7154321    eV*rad^-2 0.000 1 Bond
C3    core                  Three-body angl  112.13000    degrees   0.000 1 Bond
N1    core                  Three-body k4    0.0000000    eV*rad^-4 0.000 1 Bond
                            Three-body k3    0.0000000    eV*rad^-3 
--------------------------------------------------------------------------------
C3    core    Harmonic      Three-body cnst  5.8715441    eV*rad^-2 0.000 1 Bond
C3    core                  Three-body angl  109.43000    degrees   0.000 1 Bond
O1    core                  Three-body k4    0.0000000    eV*rad^-4 0.000 1 Bond
                            Three-body k3    0.0000000    eV*rad^-3 
--------------------------------------------------------------------------------
C3    core    Harmonic      Three-body cnst  5.5159558    eV*rad^-2 0.000 1 Bond
C1    core                  Three-body angl  112.47000    degrees   0.000 1 Bond
C1    core                  Three-body k4    0.0000000    eV*rad^-4 0.000 1 Bond
                            Three-body k3    0.0000000    eV*rad^-3 
--------------------------------------------------------------------------------
C3    core    Harmonic      Three-body cnst  4.0762566    eV*rad^-2 0.000 1 Bond
H4    core                  Three-body angl  110.15000    degrees   0.000 1 Bond
C1    core                  Three-body k4    0.0000000    eV*rad^-4 0.000 1 Bond
                            Three-body k3    0.0000000    eV*rad^-3 
--------------------------------------------------------------------------------
C3    core    Harmonic      Three-body cnst  5.8281797    eV*rad^-2 0.000 1 Bond
C1    core                  Three-body angl  112.97000    degrees   0.000 1 Bond
O1    core                  Three-body k4    0.0000000    eV*rad^-4 0.000 1 Bond
                            Three-body k3    0.0000000    eV*rad^-3 
--------------------------------------------------------------------------------
C3    core    Harmonic      Three-body cnst  3.4171172    eV*rad^-2 0.000 1 Bond
H4    core                  Three-body angl  108.35000    degrees   0.000 1 Bond
H4    core                  Three-body k4    0.0000000    eV*rad^-4 0.000 1 Bond
                            Three-body k3    0.0000000    eV*rad^-3 
--------------------------------------------------------------------------------
C3    core    Harmonic      Three-body cnst  4.3190974    eV*rad^-2 0.000 1 Bond
H4    core                  Three-body angl  109.50000    degrees   0.000 1 Bond
N1    core                  Three-body k4    0.0000000    eV*rad^-4 0.000 1 Bond
                            Three-body k3    0.0000000    eV*rad^-3 
--------------------------------------------------------------------------------
C3    core    Harmonic      Three-body cnst  4.4318450    eV*rad^-2 0.000 1 Bond
H4    core                  Three-body angl  109.50000    degrees   0.000 1 Bond
O1    core                  Three-body k4    0.0000000    eV*rad^-4 0.000 1 Bond
                            Three-body k3    0.0000000    eV*rad^-3 
--------------------------------------------------------------------------------
C3    core    Harmonic      Three-body cnst  5.9669458    eV*rad^-2 0.000 1 Bond
N1    core                  Three-body angl  113.81000    degrees   0.000 1 Bond
N1    core                  Three-body k4    0.0000000    eV*rad^-4 0.000 1 Bond
                            Three-body k3    0.0000000    eV*rad^-3 
--------------------------------------------------------------------------------
C3    core    Harmonic      Three-body cnst  6.3658986    eV*rad^-2 0.000 1 Bond
O2    core                  Three-body angl  122.30000    degrees   0.000 1 Bond
O2    core                  Three-body k4    0.0000000    eV*rad^-4 0.000 1 Bond
                            Three-body k3    0.0000000    eV*rad^-3 
--------------------------------------------------------------------------------
C3    core    Harmonic      Three-body cnst  6.2531511    eV*rad^-2 0.000 1 Bond
O1    core                  Three-body angl  111.08000    degrees   0.000 1 Bond
O1    core                  Three-body k4    0.0000000    eV*rad^-4 0.000 1 Bond
                            Three-body k3    0.0000000    eV*rad^-3 
--------------------------------------------------------------------------------
C1    core    Harmonic      Three-body cnst  5.4378998    eV*rad^-2 0.000 1 Bond
C2    core                  Three-body angl  120.00000    degrees   0.000 1 Bond
C2    core                  Three-body k4    0.0000000    eV*rad^-4 0.000 1 Bond
                            Three-body k3    0.0000000    eV*rad^-3 
--------------------------------------------------------------------------------
C1    core    Harmonic      Three-body cnst  5.4292269    eV*rad^-2 0.000 1 Bond
C2    core                  Three-body angl  118.06000    degrees   0.000 1 Bond
C3    core                  Three-body k4    0.0000000    eV*rad^-4 0.000 1 Bond
                            Three-body k3    0.0000000    eV*rad^-3 
--------------------------------------------------------------------------------
C1    core    Harmonic      Three-body cnst  5.6026846    eV*rad^-2 0.000 1 Bond
C1    core                  Three-body angl  120.14000    degrees   0.000 1 Bond
C2    core                  Three-body k4    0.0000000    eV*rad^-4 0.000 1 Bond
                            Three-body k3    0.0000000    eV*rad^-3 
--------------------------------------------------------------------------------
C1    core    Harmonic      Three-body cnst  4.0328922    eV*rad^-2 0.000 1 Bond
H1    core                  Three-body angl  115.90000    degrees   0.000 1 Bond
C2    core                  Three-body k4    0.0000000    eV*rad^-4 0.000 1 Bond
                            Three-body k3    0.0000000    eV*rad^-3 
--------------------------------------------------------------------------------
C1    core    Harmonic      Three-body cnst 0.97136328    eV*rad^-2 0.000 1 Bond
H4    core                  Three-body angl  120.00000    degrees   0.000 1 Bond
C2    core                  Three-body k4    0.0000000    eV*rad^-4 0.000 1 Bond
                            Three-body k3    0.0000000    eV*rad^-3 
--------------------------------------------------------------------------------
C1    core    Harmonic      Three-body cnst  5.4118811    eV*rad^-2 0.000 1 Bond
C3    core                  Three-body angl  116.80000    degrees   0.000 1 Bond
C3    core                  Three-body k4    0.0000000    eV*rad^-4 0.000 1 Bond
                            Three-body k3    0.0000000    eV*rad^-3 
--------------------------------------------------------------------------------
C1    core    Harmonic      Three-body cnst  5.5333015    eV*rad^-2 0.000 1 Bond
C1    core                  Three-body angl  120.63000    degrees   0.000 1 Bond
C3    core                  Three-body k4    0.0000000    eV*rad^-4 0.000 1 Bond
                            Three-body k3    0.0000000    eV*rad^-3 
--------------------------------------------------------------------------------
C1    core    Harmonic      Three-body cnst  5.8281797    eV*rad^-2 0.000 1 Bond
C1    core                  Three-body angl  119.97000    degrees   0.000 1 Bond
C1    core                  Three-body k4    0.0000000    eV*rad^-4 0.000 1 Bond
                            Three-body k3    0.0000000    eV*rad^-3 
--------------------------------------------------------------------------------
C1    core    Harmonic      Three-body cnst  4.2063499    eV*rad^-2 0.000 1 Bond
H1    core                  Three-body angl  120.01000    degrees   0.000 1 Bond
C1    core                  Three-body k4    0.0000000    eV*rad^-4 0.000 1 Bond
                            Three-body k3    0.0000000    eV*rad^-3 
--------------------------------------------------------------------------------
C1    core    Harmonic      Three-body cnst  5.8975628    eV*rad^-2 0.000 1 Bond
C1    core                  Three-body angl  119.89000    degrees   0.000 1 Bond
N1    core                  Three-body k4    0.0000000    eV*rad^-4 0.000 1 Bond
                            Three-body k3    0.0000000    eV*rad^-3 
--------------------------------------------------------------------------------
C1    core    Harmonic      Three-body cnst  6.1490765    eV*rad^-2 0.000 1 Bond
C1    core                  Three-body angl  123.43000    degrees   0.000 1 Bond
O2    core                  Three-body k4    0.0000000    eV*rad^-4 0.000 1 Bond
                            Three-body k3    0.0000000    eV*rad^-3 
--------------------------------------------------------------------------------
C1    core    Harmonic      Three-body cnst  6.0536747    eV*rad^-2 0.000 1 Bond
C1    core                  Three-body angl  119.94000    degrees   0.000 1 Bond
O1    core                  Three-body k4    0.0000000    eV*rad^-4 0.000 1 Bond
                            Three-body k3    0.0000000    eV*rad^-3 
--------------------------------------------------------------------------------
C1    core    Harmonic      Three-body cnst  6.5480292    eV*rad^-2 0.000 1 Bond
O2    core                  Three-body angl  126.82000    degrees   0.000 1 Bond
O2    core                  Three-body k4    0.0000000    eV*rad^-4 0.000 1 Bond
                            Three-body k3    0.0000000    eV*rad^-3 
--------------------------------------------------------------------------------
C1    core    Harmonic      Three-body cnst  6.2965155    eV*rad^-2 0.000 1 Bond
O1    core                  Three-body angl  120.00000    degrees   0.000 1 Bond
O1    core                  Three-body k4    0.0000000    eV*rad^-4 0.000 1 Bond
                            Three-body k3    0.0000000    eV*rad^-3 
--------------------------------------------------------------------------------
N1    core    Harmonic      Three-body cnst  5.8455254    eV*rad^-2 0.000 1 Bond
C2    core                  Three-body angl  119.63000    degrees   0.000 1 Bond
C2    core                  Three-body k4    0.0000000    eV*rad^-4 0.000 1 Bond
                            Three-body k3    0.0000000    eV*rad^-3 
--------------------------------------------------------------------------------
N1    core    Harmonic      Three-body cnst  5.5419744    eV*rad^-2 0.000 1 Bond
C2    core                  Three-body angl  121.35000    degrees   0.000 1 Bond
C3    core                  Three-body k4    0.0000000    eV*rad^-4 0.000 1 Bond
                            Three-body k3    0.0000000    eV*rad^-3 
--------------------------------------------------------------------------------
N1    core    Harmonic      Three-body cnst  5.5766660    eV*rad^-2 0.000 1 Bond
C1    core                  Three-body angl  123.71000    degrees   0.000 1 Bond
C2    core                  Three-body k4    0.0000000    eV*rad^-4 0.000 1 Bond
                            Three-body k3    0.0000000    eV*rad^-3 
--------------------------------------------------------------------------------
N1    core    Harmonic      Three-body cnst  4.2670601    eV*rad^-2 0.000 1 Bond
H3    core                  Three-body angl  118.46000    degrees   0.000 1 Bond
C2    core                  Three-body k4    0.0000000    eV*rad^-4 0.000 1 Bond
                            Three-body k3    0.0000000    eV*rad^-3 
--------------------------------------------------------------------------------
N1    core    Harmonic      Three-body cnst  5.9149085    eV*rad^-2 0.000 1 Bond
C2    core                  Three-body angl  118.42000    degrees   0.000 1 Bond
N1    core                  Three-body k4    0.0000000    eV*rad^-4 0.000 1 Bond
                            Three-body k3    0.0000000    eV*rad^-3 
--------------------------------------------------------------------------------
N1    core    Harmonic      Three-body cnst  6.2097867    eV*rad^-2 0.000 1 Bond
C2    core                  Three-body angl  118.90000    degrees   0.000 1 Bond
O2    core                  Three-body k4    0.0000000    eV*rad^-4 0.000 1 Bond
                            Three-body k3    0.0000000    eV*rad^-3 
--------------------------------------------------------------------------------
N1    core    Harmonic      Three-body cnst  6.0276561    eV*rad^-2 0.000 1 Bond
C2    core                  Three-body angl  113.39000    degrees   0.000 1 Bond
O1    core                  Three-body k4    0.0000000    eV*rad^-4 0.000 1 Bond
                            Three-body k3    0.0000000    eV*rad^-3 
--------------------------------------------------------------------------------
N1    core    Harmonic      Three-body cnst  5.5506473    eV*rad^-2 0.000 1 Bond
C3    core                  Three-body angl  112.62000    degrees   0.000 1 Bond
C3    core                  Three-body k4    0.0000000    eV*rad^-4 0.000 1 Bond
                            Three-body k3    0.0000000    eV*rad^-3 
--------------------------------------------------------------------------------
N1    core    Harmonic      Three-body cnst  5.4118811    eV*rad^-2 0.000 1 Bond
C1    core                  Three-body angl  121.15000    degrees   0.000 1 Bond
C3    core                  Three-body k4    0.0000000    eV*rad^-4 0.000 1 Bond
                            Three-body k3    0.0000000    eV*rad^-3 
--------------------------------------------------------------------------------
N1    core    Harmonic      Three-body cnst  3.9895277    eV*rad^-2 0.000 1 Bond
H3    core                  Three-body angl  116.78000    degrees   0.000 1 Bond
C3    core                  Three-body k4    0.0000000    eV*rad^-4 0.000 1 Bond
                            Three-body k3    0.0000000    eV*rad^-3 
--------------------------------------------------------------------------------
N1    core    Harmonic      Three-body cnst  5.5940117    eV*rad^-2 0.000 1 Bond
C1    core                  Three-body angl  116.80000    degrees   0.000 1 Bond
C1    core                  Three-body k4    0.0000000    eV*rad^-4 0.000 1 Bond
                            Three-body k3    0.0000000    eV*rad^-3 
--------------------------------------------------------------------------------
N1    core    Harmonic      Three-body cnst  4.1282939    eV*rad^-2 0.000 1 Bond
H3    core                  Three-body angl  114.59000    degrees   0.000 1 Bond
C1    core                  Three-body k4    0.0000000    eV*rad^-4 0.000 1 Bond
                            Three-body k3    0.0000000    eV*rad^-3 
--------------------------------------------------------------------------------
N1    core    Harmonic      Three-body cnst  3.4431359    eV*rad^-2 0.000 1 Bond
H3    core                  Three-body angl  117.85000    degrees   0.000 1 Bond
H3    core                  Three-body k4    0.0000000    eV*rad^-4 0.000 1 Bond
                            Three-body k3    0.0000000    eV*rad^-3 
--------------------------------------------------------------------------------
N1    core    Harmonic      Three-body cnst  4.3451161    eV*rad^-2 0.000 1 Bond
H3    core                  Three-body angl  113.12000    degrees   0.000 1 Bond
N1    core                  Three-body k4    0.0000000    eV*rad^-4 0.000 1 Bond
                            Three-body k3    0.0000000    eV*rad^-3 
--------------------------------------------------------------------------------
N1    core    Harmonic      Three-body cnst  4.6660129    eV*rad^-2 0.000 1 Bond
H3    core                  Three-body angl  116.32000    degrees   0.000 1 Bond
O2    core                  Three-body k4    0.0000000    eV*rad^-4 0.000 1 Bond
                            Three-body k3    0.0000000    eV*rad^-3 
--------------------------------------------------------------------------------
N1    core    Harmonic      Three-body cnst  4.3971534    eV*rad^-2 0.000 1 Bond
H3    core                  Three-body angl  109.21000    degrees   0.000 1 Bond
O1    core                  Three-body k4    0.0000000    eV*rad^-4 0.000 1 Bond
                            Three-body k3    0.0000000    eV*rad^-3 
--------------------------------------------------------------------------------
N1    core    Harmonic      Three-body cnst  6.0623476    eV*rad^-2 0.000 1 Bond
N1    core                  Three-body angl  114.62000    degrees   0.000 1 Bond
N1    core                  Three-body k4    0.0000000    eV*rad^-4 0.000 1 Bond
                            Three-body k3    0.0000000    eV*rad^-3 
--------------------------------------------------------------------------------
N1    core    Harmonic      Three-body cnst  6.3658986    eV*rad^-2 0.000 1 Bond
O2    core                  Three-body angl  128.61000    degrees   0.000 1 Bond
O2    core                  Three-body k4    0.0000000    eV*rad^-4 0.000 1 Bond
                            Three-body k3    0.0000000    eV*rad^-3 
--------------------------------------------------------------------------------
N1    core    Harmonic      Three-body cnst  6.2444782    eV*rad^-2 0.000 1 Bond
O1    core                  Three-body angl  107.26000    degrees   0.000 1 Bond
O1    core                  Three-body k4    0.0000000    eV*rad^-4 0.000 1 Bond
                            Three-body k3    0.0000000    eV*rad^-3 
--------------------------------------------------------------------------------
O1    core    Harmonic      Three-body cnst  4.4405178    eV*rad^-2 0.000 1 Bond
H2    core                  Three-body angl  107.37000    degrees   0.000 1 Bond
C2    core                  Three-body k4    0.0000000    eV*rad^-4 0.000 1 Bond
                            Three-body k3    0.0000000    eV*rad^-3 
--------------------------------------------------------------------------------
O1    core    Harmonic      Three-body cnst  4.0849295    eV*rad^-2 0.000 1 Bond
H2    core                  Three-body angl  108.16000    degrees   0.000 1 Bond
C3    core                  Three-body k4    0.0000000    eV*rad^-4 0.000 1 Bond
                            Three-body k3    0.0000000    eV*rad^-3 
--------------------------------------------------------------------------------
O1    core    Harmonic      Three-body cnst  4.2410415    eV*rad^-2 0.000 1 Bond
H2    core                  Three-body angl  109.47000    degrees   0.000 1 Bond
C1    core                  Three-body k4    0.0000000    eV*rad^-4 0.000 1 Bond
                            Three-body k3    0.0000000    eV*rad^-3 
--------------------------------------------------------------------------------
O1    core    Harmonic      Three-body cnst  3.6339394    eV*rad^-2 0.000 1 Bond
H2    core                  Three-body angl  104.80000    degrees   0.000 1 Bond
H2    core                  Three-body k4    0.0000000    eV*rad^-4 0.000 1 Bond
                            Three-body k3    0.0000000    eV*rad^-3 
--------------------------------------------------------------------------------
O1    core    Harmonic      Three-body cnst  4.3798076    eV*rad^-2 0.000 1 Bond
H2    core                  Three-body angl  101.03000    degrees   0.000 1 Bond
N1    core                  Three-body k4    0.0000000    eV*rad^-4 0.000 1 Bond
                            Three-body k3    0.0000000    eV*rad^-3 
--------------------------------------------------------------------------------
O1    core    Harmonic      Three-body cnst  4.1022753    eV*rad^-2 0.000 1 Bond
H2    core                  Three-body angl  100.87000    degrees   0.000 1 Bond
O2    core                  Three-body k4    0.0000000    eV*rad^-4 0.000 1 Bond
                            Three-body k3    0.0000000    eV*rad^-3 
--------------------------------------------------------------------------------
O1    core    Harmonic      Three-body cnst  4.2757330    eV*rad^-2 0.000 1 Bond
H2    core                  Three-body angl  98.720000    degrees   0.000 1 Bond
O1    core                  Three-body k4    0.0000000    eV*rad^-4 0.000 1 Bond
                            Three-body k3    0.0000000    eV*rad^-3 
--------------------------------------------------------------------------------

  Intramolecular Four-body potentials :

--------------------------------------------------------------------------------
  Atoms       Potential      Parameter       Value         Units   Cutoffs(Ang)
  1 - 4                                                             Min /  Max 
--------------------------------------------------------------------------------
X     core    Standard      Torsional const 0.13009330E-01eV         Bonded
C2    core Phase = +  2                                                       
C2    core                                                              
X     core
--------------------------------------------------------------------------------
X     core    Standard      Torsional const  0.0000000    eV         Bonded
C2    core Phase = +  2                                                       
C3    core                                                              
X     core
--------------------------------------------------------------------------------
X     core    Standard      Torsional const 0.15719607    eV         Bonded
C2    core Phase = +  2                                                       
C1    core                                                              
X     core
--------------------------------------------------------------------------------
X     core    Standard      Torsional const 0.10841108    eV         Bonded
C2    core Phase = +  2                                                       
N1    core                                                              
X     core
--------------------------------------------------------------------------------
X     core    Standard      Torsional const 0.99738194E-01eV         Bonded
C2    core Phase = +  2                                                       
O1    core                                                              
X     core
--------------------------------------------------------------------------------
X     core    Standard      Torsional const 0.67475056E-02eV         Bonded
C3    core Phase = +  3                                                       
C3    core                                                              
X     core
--------------------------------------------------------------------------------
X     core    Standard      Torsional const  0.0000000    eV         Bonded
C3    core Phase = +  2                                                       
C1    core                                                              
X     core
--------------------------------------------------------------------------------
X     core    Standard      Torsional const  0.0000000    eV         Bonded
C3    core Phase = +  2                                                       
N1    core                                                              
X     core
--------------------------------------------------------------------------------
X     core    Standard      Torsional const 0.72288508E-02eV         Bonded
C3    core Phase = +  3                                                       
O1    core                                                              
X     core
--------------------------------------------------------------------------------
X     core    Standard      Torsional const 0.15719607    eV         Bonded
C1    core Phase = +  2                                                       
C1    core                                                              
X     core
--------------------------------------------------------------------------------
X     core    Standard      Torsional const 0.19513994E-01eV         Bonded
C1    core Phase = +  2                                                       
N1    core                                                              
X     core
--------------------------------------------------------------------------------
X     core    Standard      Torsional const 0.39027989E-01eV         Bonded
C1    core Phase = +  2                                                       
O1    core                                                              
X     core
--------------------------------------------------------------------------------
X     core    Standard      Torsional const 0.49869097E-01eV         Bonded
N1    core Phase = +  2                                                       
N1    core                                                              
X     core
[...]
     18 C2    c       0.000526     -0.000101     -0.000659      0.000000
     19 C1    c       0.000080     -0.000194     -0.000628      0.000000
     20 H1    c      -0.000467     -0.000242      0.000908      0.000000
--------------------------------------------------------------------------------
  Maximum abs         0.005298      0.003932      0.002977      0.000000
--------------------------------------------------------------------------------


  Born effective charge tensors : 

-------------------------------------------------------------------------------
  Atom             x           y             z
-------------------------------------------------------------------------------
    1 O1    x      -0.4991      0.0000      0.0000
            y       0.0000     -0.4991      0.0000
            z       0.0000      0.0000     -0.4991
-------------------------------------------------------------------------------
    2 H2    x       0.4180      0.0000      0.0000
            y       0.0000      0.4180      0.0000
            z       0.0000      0.0000      0.4180
-------------------------------------------------------------------------------
    3 O2    x      -0.5931      0.0000      0.0000
            y       0.0000     -0.5931      0.0000
            z       0.0000      0.0000     -0.5931
-------------------------------------------------------------------------------
    4 N1    x      -0.4721      0.0000      0.0000
            y       0.0000     -0.4721      0.0000
            z       0.0000      0.0000     -0.4721
-------------------------------------------------------------------------------
    5 H3    x       0.3135      0.0000      0.0000
            y       0.0000      0.3135      0.0000
            z       0.0000      0.0000      0.3135
-------------------------------------------------------------------------------
    6 C1    x       0.0961      0.0000      0.0000
            y       0.0000      0.0961      0.0000
            z       0.0000      0.0000      0.0961
-------------------------------------------------------------------------------
    7 C1    x       0.0356      0.0000      0.0000
            y       0.0000      0.0356      0.0000
            z       0.0000      0.0000      0.0356
-------------------------------------------------------------------------------
    8 C1    x      -0.1345      0.0000      0.0000
            y       0.0000     -0.1345      0.0000
            z       0.0000      0.0000     -0.1345
-------------------------------------------------------------------------------
    9 H1    x       0.1530      0.0000      0.0000
            y       0.0000      0.1530      0.0000
            z       0.0000      0.0000      0.1530
-------------------------------------------------------------------------------
   10 C1    x      -0.1580      0.0000      0.0000
            y       0.0000     -0.1580      0.0000
            z       0.0000      0.0000     -0.1580
-------------------------------------------------------------------------------
   11 H1    x       0.1435      0.0000      0.0000
            y       0.0000      0.1435      0.0000
            z       0.0000      0.0000      0.1435
-------------------------------------------------------------------------------
   12 C3    x      -0.1781      0.0000      0.0000
            y       0.0000     -0.1781      0.0000
            z       0.0000      0.0000     -0.1781
-------------------------------------------------------------------------------
   13 H4    x       0.0687      0.0000      0.0000
            y       0.0000      0.0687      0.0000
            z       0.0000      0.0000      0.0687
-------------------------------------------------------------------------------
   14 H4    x       0.0687      0.0000      0.0000
            y       0.0000      0.0687      0.0000
            z       0.0000      0.0000      0.0687
-------------------------------------------------------------------------------
   15 H4    x       0.0687      0.0000      0.0000
            y       0.0000      0.0687      0.0000
            z       0.0000      0.0000      0.0687
-------------------------------------------------------------------------------
   16 C1    x      -0.1580      0.0000      0.0000
            y       0.0000     -0.1580      0.0000
            z       0.0000      0.0000     -0.1580
-------------------------------------------------------------------------------
   17 H1    x       0.1435      0.0000      0.0000
            y       0.0000      0.1435      0.0000
            z       0.0000      0.0000      0.1435
-------------------------------------------------------------------------------
   18 C2    x       0.6651      0.0000      0.0000
            y       0.0000      0.6651      0.0000
            z       0.0000      0.0000      0.6651
-------------------------------------------------------------------------------
   19 C1    x      -0.1345      0.0000      0.0000
            y       0.0000     -0.1345      0.0000
            z       0.0000      0.0000     -0.1345
-------------------------------------------------------------------------------
   20 H1    x       0.1530      0.0000      0.0000
            y       0.0000      0.1530      0.0000
            z       0.0000      0.0000      0.1530
-------------------------------------------------------------------------------




  Elastic Constant Matrix: (Units=GPa)

-------------------------------------------------------------------------------
  Indices      1         2         3         4         5         6    
-------------------------------------------------------------------------------
       1     36.6802   14.7808   12.4771   -0.0000    1.9610    0.0000
       2     14.7808   15.2792   11.8683   -0.0000    2.1210    0.0000
       3     12.4771   11.8683   16.2962   -0.0000    0.2925   -0.0000
       4     -0.0000   -0.0000   -0.0000    7.8278   -0.0000    2.1417
       5      1.9610    2.1210    0.2925    0.0000    4.3160   -0.0000
       6      0.0000    0.0000   -0.0000    2.1417   -0.0000    7.5288
-------------------------------------------------------------------------------


  Elastic Compliance Matrix: (Units=1/GPa)

-------------------------------------------------------------------------------
  Indices      1         2         3         4         5         6    
-------------------------------------------------------------------------------
       1    0.044966 -0.038241 -0.006556  0.000000 -0.001193 -0.000000
       2   -0.038241  0.205195 -0.118807  0.000000 -0.075413 -0.000000
       3   -0.006556 -0.118807  0.151992 -0.000000  0.051063  0.000000
       4    0.000000 -0.000000  0.000000  0.138532  0.000000 -0.039409
       5   -0.001193 -0.075413  0.051063 -0.000000  0.265839  0.000000
       6   -0.000000 -0.000000  0.000000 -0.039409  0.000000  0.144035
-------------------------------------------------------------------------------

  Mechanical properties :

-------------------------------------------------------------------------------
  Convention :                    Reuss         Voigt         Hill
-------------------------------------------------------------------------------
  Bulk  Modulus (GPa)     =      13.34325      16.27865      14.81095
  Shear Modulus (GPa)     =       3.83804       5.87649       4.85727
-------------------------------------------------------------------------------
  Velocity S-wave (km/s)  =       1.68308       2.08261       1.89341
  Velocity P-wave (km/s)  =       3.69124       4.21875       3.96378
-------------------------------------------------------------------------------
  Compressibility (1/GPa) =    0.07494427
-------------------------------------------------------------------------------
  Stress axis :                     x             y             z
-------------------------------------------------------------------------------
  Youngs Moduli (GPa)     =      22.23885       4.87342       6.57930
-------------------------------------------------------------------------------
  Poissons Ratio (x)      =                     0.18636       0.04314
  Poissons Ratio (y)      =       0.85044                     0.78167
  Poissons Ratio (z)      =       0.14581       0.57900
-------------------------------------------------------------------------------


  Piezoelectric Strain Matrix: (Units=C/m**2)

-------------------------------------------------------------------------------
  Indices      1         2         3         4         5         6    
-------------------------------------------------------------------------------
       x    -0.00000  -0.00000   0.00000   0.00000   0.00000   0.00000
       y     0.00000  -0.00000  -0.00000   0.00000  -0.00000   0.00000
       z     0.00000   0.00000  -0.00000  -0.00000  -0.00000   0.00000
-------------------------------------------------------------------------------


  Piezoelectric Stress Matrix: (Units=10**-11 C/N)

-------------------------------------------------------------------------------
  Indices      1         2         3         4         5         6    
-------------------------------------------------------------------------------
       x    -0.00000  -0.00000   0.00000   0.00000   0.00000   0.00000
       y     0.00000  -0.00000  -0.00000  -0.00000  -0.00000   0.00000
       z     0.00000   0.00000  -0.00000  -0.00000  -0.00000   0.00000
-------------------------------------------------------------------------------


  Static dielectric constant tensor : 

-------------------------------------------------------------------------------
              x         y         z
-------------------------------------------------------------------------------
       x     1.04849   0.00000   0.02110
       y     0.00000   1.46835  -0.00000
       z     0.02110  -0.00000   1.28868
--------------------------------------------------------------------------------

  Static refractive indices : 

-------------------------------------------------------------------------------
    1 =    1.02306      2 =    1.13601      3 =    1.21175
-------------------------------------------------------------------------------


  Phonon Calculation : 

  Number of k points for this configuration =        1

--------------------------------------------------------------------------------
  K point      1 =   0.000000  0.000000  0.000000  Weight =    1.000
--------------------------------------------------------------------------------

  Frequencies (cm-1) [NB: Negative implies an imaginary mode]:

   -0.00   -0.00    0.00   36.35   37.58   50.39   52.71   68.13   70.59
   73.47   79.17   81.57   85.52   93.93   95.07   96.90   97.73  103.68
  109.96  112.00  114.63  114.96  115.11  121.33  123.01  124.66  124.78
  145.63  147.54  150.75  156.65  165.12  197.93  201.24  209.04  209.15
  213.17  214.33  230.53  236.64  246.99  247.49  261.49  268.29  318.23
  325.32  325.33  326.06  352.55  354.90  366.15  368.36  378.45  380.72
  409.72  412.58  427.64  427.80  429.41  431.26  487.06  487.93  488.59
  491.69  507.82  512.71  516.64  517.51  517.71  518.13  524.89  526.02
  605.90  606.87  608.84  608.95  636.65  640.66  640.92  642.65  659.75
  660.01  663.81  664.21  684.35  684.60  685.56  686.53  725.87  729.11
  742.39  750.72  766.63  767.51  771.22  771.39  842.24  843.63  847.37
  849.19  855.44  860.36  861.11  861.32  888.69  893.91  894.18  895.30
  897.33  901.53  902.01  905.75  918.05  919.41  921.78  926.05 1018.48
 1018.62 1019.08 1019.72 1037.91 1038.90 1042.11 1043.26 1050.69 1051.23
 1052.90 1053.34 1107.94 1109.23 1110.39 1111.30 1125.44 1127.97 1129.26
 1131.64 1191.18 1194.76 1195.36 1197.75 1214.52 1215.19 1216.57 1217.55
 1271.92 1274.30 1277.47 1281.11 1310.20 1311.34 1311.91 1312.79 1348.08
 1349.04 1350.75 1351.76 1382.77 1384.49 1384.62 1385.46 1472.64 1472.83
 1473.03 1473.47 1488.87 1489.05 1489.90 1489.93 1497.17 1497.32 1497.36
 1497.94 1533.14 1533.65 1534.22 1534.52 1559.25 1560.08 1561.82 1562.05
 1713.34 1713.38 1714.14 1718.45 1741.26 1742.09 1743.38 1743.42 1761.01
 1761.48 1762.71 1763.12 1783.32 1784.39 1784.67 1785.47 1802.95 1803.02
 1803.36 1804.78 1881.73 1881.80 1882.85 1883.04 2874.23 2874.25 2874.31
 2874.40 2970.42 2970.45 2971.53 2971.73 2971.95 2972.23 2974.19 2974.36
 2974.41 2974.58 2977.89 2977.98 2978.33 2978.41 2979.59 2979.62 2979.70
 2980.35 2983.71 2984.25 2984.46 2984.73 2989.05 2989.20 2989.53 2990.07
 3021.12 3021.14 3219.19 3219.23 3219.40 3220.02


--------------------------------------------------------------------------------
  Phonon properties (per mole of unit cells): Temperature =      0.000 K
--------------------------------------------------------------------------------
  Zero point energy             =       17.673058 eV
--------------------------------------------------------------------------------

  Phonon density of states : 

--------------------------------------------------------------------------------
 Frequency (cm-1) Density of States                                             
--------------------------------------------------------------------------------
    0.00000 |******                                                        0.013
   50.31286 |***************************                                   0.050
  100.62572 |******************************                                0.055
  150.93858 |*********                                                     0.017
  201.25144 |******************                                            0.034
  251.56430 |****                                                          0.008
  301.87716 |*********                                                     0.017
  352.19001 |*************                                                 0.025
  402.50287 |*************                                                 0.025
  452.81573 |*********                                                     0.017
  503.12859 |******************                                            0.034
  553.44145 |                                                              0.000
  603.75431 |******************                                            0.034
  654.06717 |******************                                            0.034
  704.38003 |*********                                                     0.017
  754.69289 |*********                                                     0.017
  805.00575 |*********                                                     0.017
  855.31861 |*************************                                     0.046
  905.63147 |***********                                                   0.021
  955.94433 |                                                              0.000
 1006.25719 |***************************                                   0.050
 1056.57004 |                                                              0.000
 1106.88290 |******************                                            0.034
 1157.19576 |*********                                                     0.017
 1207.50862 |*********                                                     0.017
 1257.82148 |*********                                                     0.017
 1308.13434 |******************                                            0.034
 1358.44720 |*********                                                     0.017
 1408.76006 |                                                              0.000
 1459.07292 |***************************                                   0.050
 1509.38578 |***********                                                   0.021
 1559.69864 |******                                                        0.013
 1610.01150 |                                                              0.000
 1660.32436 |                                                              0.000
 1710.63722 |******************                                            0.034
 1760.95007 |***************************                                   0.050
 1811.26293 |                                                              0.000
 1861.57579 |*********                                                     0.017
 1911.88865 |                                                              0.000
 1962.20151 |                                                              0.000
 2012.51437 |                                                              0.000
 2062.82723 |                                                              0.000
 2113.14009 |                                                              0.000
 2163.45295 |                                                              0.000
 2213.76581 |                                                              0.000
 2264.07867 |                                                              0.000
 2314.39153 |                                                              0.000
 2364.70439 |                                                              0.000
 2415.01725 |                                                              0.000
 2465.33010 |                                                              0.000
 2515.64296 |                                                              0.000
 2565.95582 |                                                              0.000
 2616.26868 |                                                              0.000
 2666.58154 |                                                              0.000
 2716.89440 |                                                              0.000
 2767.20726 |                                                              0.000
 2817.52012 |                                                              0.000
 2867.83298 |*********                                                     0.017
 2918.14584 |                                                              0.000
 2968.45870 |************************************************************  0.109
 3018.77156 |****                                                          0.008
 3069.08442 |                                                              0.000
 3119.39728 |                                                              0.000
 3169.71013 |*********                                                     0.017
--------------------------------------------------------------------------------



  Time to end of optimisation =       5.1819 seconds


  Peak dynamic memory used =       3.50 MB 


  Timing analysis for GULP :

--------------------------------------------------------------------------------
  Task / Subroutine                                          Time (Seconds)
--------------------------------------------------------------------------------
  Calculation of reciprocal space energy and derivatives          0.0561
  Calculation of reciprocal space energy using symmetry           0.1086
  Calculation of real space energy and derivatives                0.1235
  Calculation of real space energy using symmetry                 2.3082
  Calculation of three-body energy and derivatives                1.2242
  Calculation of four-body energy and derivatives                 1.2588
  Calculation of molecules and connectivity                       0.0232
  Calculation of phonons                                          0.1032
  Calculation and manipulation of Hessian matrix                  0.0002
  Calculation of matrix diagonalisation                           0.0064
  Calculation of matrix inversion                                 0.0003
  Symmetry generation of equivalent positions                     0.0024
--------------------------------------------------------------------------------
  Total CPU time                                                  5.1820
--------------------------------------------------------------------------------


  Job Finished at 23:38.10 11th January    2023                               

