********************************************************************************
*                       GENERAL UTILITY LATTICE PROGRAM                        *
*                                 Julian Gale                                  *
*                       Curtin Institute for Computation                       *
*                    School of Molecular and Life Sciences                     *
*                    Curtin University, Western Australia                      *
********************************************************************************
* Version = 6.1.0 * Last modified =  22nd June 2022                            *
********************************************************************************
*  optimise     - perform optimisation run                                     *
*  conp         - constant pressure calculation                                *
*  phonon       - calculate phonons for final geometry                         *
*  no4duplicate - do not duplicate torsions with wildcard potentials           *
*  molq         - molecule option activated, but with Coulomb terms retained   *
********************************************************************************

  Job Started  at 23:19.02 10th January    2023                               

  Number of CPUs =     6

  Host name      = nhpc101                                 


  Total number of configurations input =      1

********************************************************************************
*  Input for Configuration =   1                                               *
********************************************************************************

  Formula = O64H288N32C256                                              

  Number of irreducible atoms/shells =     640


  Total number atoms/shells =     640

  Dimensionality = 3               :  Bulk   



  Supercell dimensions :  x =   2  y =   2  z =   2

  Cartesian lattice vectors (Angstroms) :

       14.250000    0.000000    0.000000
        0.000000   18.440000    0.000000
       -3.280934    0.000000   22.966834

  Cell parameters (Angstroms/Degrees):

  a =      14.2500    alpha =  90.0000
  b =      18.4400    beta  =  98.1300
  c =      23.2000    gamma =  90.0000

  Initial cell volume =        6034.995000 Angs**3

  Shrinking factors =      4     4     2

  Temperature of configuration =   0.00     K 

  Pressure of configuration =         0.000 GPa 

  Fractional coordinates of asymmetric unit :

--------------------------------------------------------------------------------
   No.  Atomic       x           y          z         Charge      Occupancy
        Label      (Frac)      (Frac)     (Frac)        (e)         (Frac)  
--------------------------------------------------------------------------------
      1 O1    c    0.081925 *  0.037070 *  0.111020 *  -0.49910    1.000000    
      2 O1    c    0.081925 *  0.037070 *  0.611020 *  -0.49910    1.000000    
      3 O1    c    0.081925 *  0.537070 *  0.111020 *  -0.49910    1.000000    
      4 O1    c    0.081925 *  0.537070 *  0.611020 *  -0.49910    1.000000    
      5 O1    c    0.581925 *  0.037070 *  0.111020 *  -0.49910    1.000000    
      6 O1    c    0.581925 *  0.037070 *  0.611020 *  -0.49910    1.000000    
      7 O1    c    0.581925 *  0.537070 *  0.111020 *  -0.49910    1.000000    
      8 O1    c    0.581925 *  0.537070 *  0.611020 *  -0.49910    1.000000    
      9 O1    c    0.168075 *  0.287070 *  0.138980 *  -0.49910    1.000000    
     10 O1    c    0.168075 *  0.287070 *  0.638980 *  -0.49910    1.000000    
     11 O1    c    0.168075 *  0.787070 *  0.138980 *  -0.49910    1.000000    
     12 O1    c    0.168075 *  0.787070 *  0.638980 *  -0.49910    1.000000    
     13 O1    c    0.668075 *  0.287070 *  0.138980 *  -0.49910    1.000000    
     14 O1    c    0.668075 *  0.287070 *  0.638980 *  -0.49910    1.000000    
     15 O1    c    0.668075 *  0.787070 *  0.138980 *  -0.49910    1.000000    
     16 O1    c    0.668075 *  0.787070 *  0.638980 *  -0.49910    1.000000    
     17 O1    c    0.418075 *  0.462930 *  0.388980 *  -0.49910    1.000000    
     18 O1    c    0.418075 *  0.462930 *  0.888980 *  -0.49910    1.000000    
     19 O1    c    0.418075 *  0.962930 *  0.388980 *  -0.49910    1.000000    
     20 O1    c    0.418075 *  0.962930 *  0.888980 *  -0.49910    1.000000    
     21 O1    c    0.918075 *  0.462930 *  0.388980 *  -0.49910    1.000000    
     22 O1    c    0.918075 *  0.462930 *  0.888980 *  -0.49910    1.000000    
     23 O1    c    0.918075 *  0.962930 *  0.388980 *  -0.49910    1.000000    
     24 O1    c    0.918075 *  0.962930 *  0.888980 *  -0.49910    1.000000    
     25 O1    c    0.331925 *  0.212930 *  0.361020 *  -0.49910    1.000000    
     26 O1    c    0.331925 *  0.212930 *  0.861020 *  -0.49910    1.000000    
     27 O1    c    0.331925 *  0.712930 *  0.361020 *  -0.49910    1.000000    
     28 O1    c    0.331925 *  0.712930 *  0.861020 *  -0.49910    1.000000    
     29 O1    c    0.831925 *  0.212930 *  0.361020 *  -0.49910    1.000000    
     30 O1    c    0.831925 *  0.212930 *  0.861020 *  -0.49910    1.000000    
     31 O1    c    0.831925 *  0.712930 *  0.361020 *  -0.49910    1.000000    
     32 O1    c    0.831925 *  0.712930 *  0.861020 *  -0.49910    1.000000    
     33 H2    c    0.021305 *  0.016290 *  0.121090 *   0.41800    1.000000    
     34 H2    c    0.021305 *  0.016290 *  0.621090 *   0.41800    1.000000    
     35 H2    c    0.021305 *  0.516290 *  0.121090 *   0.41800    1.000000    
     36 H2    c    0.021305 *  0.516290 *  0.621090 *   0.41800    1.000000    
     37 H2    c    0.521305 *  0.016290 *  0.121090 *   0.41800    1.000000    
     38 H2    c    0.521305 *  0.016290 *  0.621090 *   0.41800    1.000000    
     39 H2    c    0.521305 *  0.516290 *  0.121090 *   0.41800    1.000000    
     40 H2    c    0.521305 *  0.516290 *  0.621090 *   0.41800    1.000000    
     41 H2    c    0.228695 *  0.266290 *  0.128910 *   0.41800    1.000000    
     42 H2    c    0.228695 *  0.266290 *  0.628910 *   0.41800    1.000000    
     43 H2    c    0.228695 *  0.766290 *  0.128910 *   0.41800    1.000000    
     44 H2    c    0.228695 *  0.766290 *  0.628910 *   0.41800    1.000000    
     45 H2    c    0.728695 *  0.266290 *  0.128910 *   0.41800    1.000000    
     46 H2    c    0.728695 *  0.266290 *  0.628910 *   0.41800    1.000000    
     47 H2    c    0.728695 *  0.766290 *  0.128910 *   0.41800    1.000000    
     48 H2    c    0.728695 *  0.766290 *  0.628910 *   0.41800    1.000000    
     49 H2    c    0.478695 *  0.483710 *  0.378910 *   0.41800    1.000000    
     50 H2    c    0.478695 *  0.483710 *  0.878910 *   0.41800    1.000000    
     51 H2    c    0.478695 *  0.983710 *  0.378910 *   0.41800    1.000000    
     52 H2    c    0.478695 *  0.983710 *  0.878910 *   0.41800    1.000000    
     53 H2    c    0.978695 *  0.483710 *  0.378910 *   0.41800    1.000000    
     54 H2    c    0.978695 *  0.483710 *  0.878910 *   0.41800    1.000000    
     55 H2    c    0.978695 *  0.983710 *  0.378910 *   0.41800    1.000000    
     56 H2    c    0.978695 *  0.983710 *  0.878910 *   0.41800    1.000000    
     57 H2    c    0.271305 *  0.233710 *  0.371090 *   0.41800    1.000000    
     58 H2    c    0.271305 *  0.233710 *  0.871090 *   0.41800    1.000000    
     59 H2    c    0.271305 *  0.733710 *  0.371090 *   0.41800    1.000000    
     60 H2    c    0.271305 *  0.733710 *  0.871090 *   0.41800    1.000000    
     61 H2    c    0.771305 *  0.233710 *  0.371090 *   0.41800    1.000000    
     62 H2    c    0.771305 *  0.233710 *  0.871090 *   0.41800    1.000000    
     63 H2    c    0.771305 *  0.733710 *  0.371090 *   0.41800    1.000000    
     64 H2    c    0.771305 *  0.733710 *  0.871090 *   0.41800    1.000000    
     65 O2    c    0.176825 *  0.253820 *  0.404520 *  -0.59310    1.000000    
     66 O2    c    0.176825 *  0.253820 *  0.904520 *  -0.59310    1.000000    
     67 O2    c    0.176825 *  0.753820 *  0.404520 *  -0.59310    1.000000    
     68 O2    c    0.176825 *  0.753820 *  0.904520 *  -0.59310    1.000000    
     69 O2    c    0.676825 *  0.253820 *  0.404520 *  -0.59310    1.000000    
     70 O2    c    0.676825 *  0.253820 *  0.904520 *  -0.59310    1.000000    
     71 O2    c    0.676825 *  0.753820 *  0.404520 *  -0.59310    1.000000    
     72 O2    c    0.676825 *  0.753820 *  0.904520 *  -0.59310    1.000000    
     73 O2    c    0.073175 *  0.003820 *  0.345480 *  -0.59310    1.000000    
     74 O2    c    0.073175 *  0.003820 *  0.845480 *  -0.59310    1.000000    
     75 O2    c    0.073175 *  0.503820 *  0.345480 *  -0.59310    1.000000    
     76 O2    c    0.073175 *  0.503820 *  0.845480 *  -0.59310    1.000000    
     77 O2    c    0.573175 *  0.003820 *  0.345480 *  -0.59310    1.000000    
     78 O2    c    0.573175 *  0.003820 *  0.845480 *  -0.59310    1.000000    
     79 O2    c    0.573175 *  0.503820 *  0.345480 *  -0.59310    1.000000    
     80 O2    c    0.573175 *  0.503820 *  0.845480 *  -0.59310    1.000000    
     81 O2    c    0.323175 *  0.246180 *  0.095480 *  -0.59310    1.000000    
     82 O2    c    0.323175 *  0.246180 *  0.595480 *  -0.59310    1.000000    
     83 O2    c    0.323175 *  0.746180 *  0.095480 *  -0.59310    1.000000    
     84 O2    c    0.323175 *  0.746180 *  0.595480 *  -0.59310    1.000000    
     85 O2    c    0.823175 *  0.246180 *  0.095480 *  -0.59310    1.000000    
     86 O2    c    0.823175 *  0.246180 *  0.595480 *  -0.59310    1.000000    
     87 O2    c    0.823175 *  0.746180 *  0.095480 *  -0.59310    1.000000    
     88 O2    c    0.823175 *  0.746180 *  0.595480 *  -0.59310    1.000000    
     89 O2    c    0.426825 *  0.496180 *  0.154520 *  -0.59310    1.000000    
     90 O2    c    0.426825 *  0.496180 *  0.654520 *  -0.59310    1.000000    
     91 O2    c    0.426825 *  0.996180 *  0.154520 *  -0.59310    1.000000    
     92 O2    c    0.426825 *  0.996180 *  0.654520 *  -0.59310    1.000000    
     93 O2    c    0.926825 *  0.496180 *  0.154520 *  -0.59310    1.000000    
     94 O2    c    0.926825 *  0.496180 *  0.654520 *  -0.59310    1.000000    
     95 O2    c    0.926825 *  0.996180 *  0.154520 *  -0.59310    1.000000    
     96 O2    c    0.926825 *  0.996180 *  0.654520 *  -0.59310    1.000000    
     97 N1    c    0.025965 *  0.225265 *  0.419560 *  -0.47210    1.000000    
     98 N1    c    0.025965 *  0.225265 *  0.919560 *  -0.47210    1.000000    
     99 N1    c    0.025965 *  0.725265 *  0.419560 *  -0.47210    1.000000    
    100 N1    c    0.025965 *  0.725265 *  0.919560 *  -0.47210    1.000000    
    101 N1    c    0.525965 *  0.225265 *  0.419560 *  -0.47210    1.000000    
    102 N1    c    0.525965 *  0.225265 *  0.919560 *  -0.47210    1.000000    
    103 N1    c    0.525965 *  0.725265 *  0.419560 *  -0.47210    1.000000    
    104 N1    c    0.525965 *  0.725265 *  0.919560 *  -0.47210    1.000000    
    105 N1    c    0.224035 *  0.475265 *  0.330440 *  -0.47210    1.000000    
    106 N1    c    0.224035 *  0.475265 *  0.830440 *  -0.47210    1.000000    
    107 N1    c    0.224035 *  0.975265 *  0.330440 *  -0.47210    1.000000    
    108 N1    c    0.224035 *  0.975265 *  0.830440 *  -0.47210    1.000000    
    109 N1    c    0.724035 *  0.475265 *  0.330440 *  -0.47210    1.000000    
    110 N1    c    0.724035 *  0.475265 *  0.830440 *  -0.47210    1.000000    
    111 N1    c    0.724035 *  0.975265 *  0.330440 *  -0.47210    1.000000    
    112 N1    c    0.724035 *  0.975265 *  0.830440 *  -0.47210    1.000000    
    113 N1    c    0.474035 *  0.274735 *  0.080440 *  -0.47210    1.000000    
    114 N1    c    0.474035 *  0.274735 *  0.580440 *  -0.47210    1.000000    
    115 N1    c    0.474035 *  0.774735 *  0.080440 *  -0.47210    1.000000    
    116 N1    c    0.474035 *  0.774735 *  0.580440 *  -0.47210    1.000000    
    117 N1    c    0.974035 *  0.274735 *  0.080440 *  -0.47210    1.000000    
    118 N1    c    0.974035 *  0.274735 *  0.580440 *  -0.47210    1.000000    
    119 N1    c    0.974035 *  0.774735 *  0.080440 *  -0.47210    1.000000    
    120 N1    c    0.974035 *  0.774735 *  0.580440 *  -0.47210    1.000000    
    121 N1    c    0.275965 *  0.024735 *  0.169560 *  -0.47210    1.000000    
    122 N1    c    0.275965 *  0.024735 *  0.669560 *  -0.47210    1.000000    
    123 N1    c    0.275965 *  0.524735 *  0.169560 *  -0.47210    1.000000    
    124 N1    c    0.275965 *  0.524735 *  0.669560 *  -0.47210    1.000000    
    125 N1    c    0.775965 *  0.024735 *  0.169560 *  -0.47210    1.000000    
    126 N1    c    0.775965 *  0.024735 *  0.669560 *  -0.47210    1.000000    
    127 N1    c    0.775965 *  0.524735 *  0.169560 *  -0.47210    1.000000    
    128 N1    c    0.775965 *  0.524735 *  0.669560 *  -0.47210    1.000000    
    129 H3    c    0.455755 *  0.229690 *  0.401835 *   0.31350    1.000000    
    130 H3    c    0.455755 *  0.229690 *  0.901835 *   0.31350    1.000000    
    131 H3    c    0.455755 *  0.729690 *  0.401835 *   0.31350    1.000000    
    132 H3    c    0.455755 *  0.729690 *  0.901835 *   0.31350    1.000000    
    133 H3    c    0.955755 *  0.229690 *  0.401835 *   0.31350    1.000000    
    134 H3    c    0.955755 *  0.229690 *  0.901835 *   0.31350    1.000000    
    135 H3    c    0.955755 *  0.729690 *  0.401835 *   0.31350    1.000000    
    136 H3    c    0.955755 *  0.729690 *  0.901835 *   0.31350    1.000000    
    137 H3    c    0.294245 *  0.479690 *  0.348165 *   0.31350    1.000000    
    138 H3    c    0.294245 *  0.479690 *  0.848165 *   0.31350    1.000000    
    139 H3    c    0.294245 *  0.979690 *  0.348165 *   0.31350    1.000000    
    140 H3    c    0.294245 *  0.979690 *  0.848165 *   0.31350    1.000000    
    141 H3    c    0.794245 *  0.479690 *  0.348165 *   0.31350    1.000000    
    142 H3    c    0.794245 *  0.479690 *  0.848165 *   0.31350    1.000000    
    143 H3    c    0.794245 *  0.979690 *  0.348165 *   0.31350    1.000000    
    144 H3    c    0.794245 *  0.979690 *  0.848165 *   0.31350    1.000000    
    145 H3    c    0.044245 *  0.270310 *  0.098165 *   0.31350    1.000000    
    146 H3    c    0.044245 *  0.270310 *  0.598165 *   0.31350    1.000000    
    147 H3    c    0.044245 *  0.770310 *  0.098165 *   0.31350    1.000000    
    148 H3    c    0.044245 *  0.770310 *  0.598165 *   0.31350    1.000000    
    149 H3    c    0.544245 *  0.270310 *  0.098165 *   0.31350    1.000000    
    150 H3    c    0.544245 *  0.270310 *  0.598165 *   0.31350    1.000000    
    151 H3    c    0.544245 *  0.770310 *  0.098165 *   0.31350    1.000000    
    152 H3    c    0.544245 *  0.770310 *  0.598165 *   0.31350    1.000000    
    153 H3    c    0.205755 *  0.020310 *  0.151835 *   0.31350    1.000000    
    154 H3    c    0.205755 *  0.020310 *  0.651835 *   0.31350    1.000000    
    155 H3    c    0.205755 *  0.520310 *  0.151835 *   0.31350    1.000000    
    156 H3    c    0.205755 *  0.520310 *  0.651835 *   0.31350    1.000000    
    157 H3    c    0.705755 *  0.020310 *  0.151835 *   0.31350    1.000000    
    158 H3    c    0.705755 *  0.020310 *  0.651835 *   0.31350    1.000000    
    159 H3    c    0.705755 *  0.520310 *  0.151835 *   0.31350    1.000000    
    160 H3    c    0.705755 *  0.520310 *  0.651835 *   0.31350    1.000000    
    161 C1    c    0.066820 *  0.084170 *  0.064515 *   0.09610    1.000000    
    162 C1    c    0.066820 *  0.084170 *  0.564515 *   0.09610    1.000000    
    163 C1    c    0.066820 *  0.584170 *  0.064515 *   0.09610    1.000000    
    164 C1    c    0.066820 *  0.584170 *  0.564515 *   0.09610    1.000000    
    165 C1    c    0.566820 *  0.084170 *  0.064515 *   0.09610    1.000000    
    166 C1    c    0.566820 *  0.084170 *  0.564515 *   0.09610    1.000000    
    167 C1    c    0.566820 *  0.584170 *  0.064515 *   0.09610    1.000000    
    168 C1    c    0.566820 *  0.584170 *  0.564515 *   0.09610    1.000000    
    169 C1    c    0.183180 *  0.334170 *  0.185485 *   0.09610    1.000000    
    170 C1    c    0.183180 *  0.334170 *  0.685485 *   0.09610    1.000000    
    171 C1    c    0.183180 *  0.834170 *  0.185485 *   0.09610    1.000000    
    172 C1    c    0.183180 *  0.834170 *  0.685485 *   0.09610    1.000000    
    173 C1    c    0.683180 *  0.334170 *  0.185485 *   0.09610    1.000000    
    174 C1    c    0.683180 *  0.334170 *  0.685485 *   0.09610    1.000000    
    175 C1    c    0.683180 *  0.834170 *  0.185485 *   0.09610    1.000000    
    176 C1    c    0.683180 *  0.834170 *  0.685485 *   0.09610    1.000000    
    177 C1    c    0.433180 *  0.415830 *  0.435485 *   0.09610    1.000000    
    178 C1    c    0.433180 *  0.415830 *  0.935485 *   0.09610    1.000000    
    179 C1    c    0.433180 *  0.915830 *  0.435485 *   0.09610    1.000000    
    180 C1    c    0.433180 *  0.915830 *  0.935485 *   0.09610    1.000000    
    181 C1    c    0.933180 *  0.415830 *  0.435485 *   0.09610    1.000000    
    182 C1    c    0.933180 *  0.415830 *  0.935485 *   0.09610    1.000000    
    183 C1    c    0.933180 *  0.915830 *  0.435485 *   0.09610    1.000000    
    184 C1    c    0.933180 *  0.915830 *  0.935485 *   0.09610    1.000000    
    185 C1    c    0.316820 *  0.165830 *  0.314515 *   0.09610    1.000000    
    186 C1    c    0.316820 *  0.165830 *  0.814515 *   0.09610    1.000000    
    187 C1    c    0.316820 *  0.665830 *  0.314515 *   0.09610    1.000000    
    188 C1    c    0.316820 *  0.665830 *  0.814515 *   0.09610    1.000000    
    189 C1    c    0.816820 *  0.165830 *  0.314515 *   0.09610    1.000000    
    190 C1    c    0.816820 *  0.165830 *  0.814515 *   0.09610    1.000000    
    191 C1    c    0.816820 *  0.665830 *  0.314515 *   0.09610    1.000000    
    192 C1    c    0.816820 *  0.665830 *  0.814515 *   0.09610    1.000000    
    193 C1    c    0.043820 *  0.179270 *  0.468865 *   0.03560    1.000000    
    194 C1    c    0.043820 *  0.179270 *  0.968865 *   0.03560    1.000000    
    195 C1    c    0.043820 *  0.679270 *  0.468865 *   0.03560    1.000000    
    196 C1    c    0.043820 *  0.679270 *  0.968865 *   0.03560    1.000000    
    197 C1    c    0.543820 *  0.179270 *  0.468865 *   0.03560    1.000000    
    198 C1    c    0.543820 *  0.179270 *  0.968865 *   0.03560    1.000000    
    199 C1    c    0.543820 *  0.679270 *  0.468865 *   0.03560    1.000000    
    200 C1    c    0.543820 *  0.679270 *  0.968865 *   0.03560    1.000000    
    201 C1    c    0.206180 *  0.429270 *  0.281135 *   0.03560    1.000000    
    202 C1    c    0.206180 *  0.429270 *  0.781135 *   0.03560    1.000000    
    203 C1    c    0.206180 *  0.929270 *  0.281135 *   0.03560    1.000000    
    204 C1    c    0.206180 *  0.929270 *  0.781135 *   0.03560    1.000000    
    205 C1    c    0.706180 *  0.429270 *  0.281135 *   0.03560    1.000000    
    206 C1    c    0.706180 *  0.429270 *  0.781135 *   0.03560    1.000000    
    207 C1    c    0.706180 *  0.929270 *  0.281135 *   0.03560    1.000000    
    208 C1    c    0.706180 *  0.929270 *  0.781135 *   0.03560    1.000000    
    209 C1    c    0.456180 *  0.320730 *  0.031135 *   0.03560    1.000000    
    210 C1    c    0.456180 *  0.320730 *  0.531135 *   0.03560    1.000000    
    211 C1    c    0.456180 *  0.820730 *  0.031135 *   0.03560    1.000000    
    212 C1    c    0.456180 *  0.820730 *  0.531135 *   0.03560    1.000000    
    213 C1    c    0.956180 *  0.320730 *  0.031135 *   0.03560    1.000000    
    214 C1    c    0.956180 *  0.320730 *  0.531135 *   0.03560    1.000000    
    215 C1    c    0.956180 *  0.820730 *  0.031135 *   0.03560    1.000000    
    216 C1    c    0.956180 *  0.820730 *  0.531135 *   0.03560    1.000000    
    217 C1    c    0.293820 *  0.070730 *  0.218865 *   0.03560    1.000000    
    218 C1    c    0.293820 *  0.070730 *  0.718865 *   0.03560    1.000000    
    219 C1    c    0.293820 *  0.570730 *  0.218865 *   0.03560    1.000000    
    220 C1    c    0.293820 *  0.570730 *  0.718865 *   0.03560    1.000000    
    221 C1    c    0.793820 *  0.070730 *  0.218865 *   0.03560    1.000000    
    222 C1    c    0.793820 *  0.070730 *  0.718865 *   0.03560    1.000000    
    223 C1    c    0.793820 *  0.570730 *  0.218865 *   0.03560    1.000000    
    224 C1    c    0.793820 *  0.570730 *  0.718865 *   0.03560    1.000000    
    225 C1    c    0.129520 *  0.178820 *  0.007515 *  -0.13450    1.000000    
    226 C1    c    0.129520 *  0.178820 *  0.507515 *  -0.13450    1.000000    
    227 C1    c    0.129520 *  0.678820 *  0.007515 *  -0.13450    1.000000    
    228 C1    c    0.129520 *  0.678820 *  0.507515 *  -0.13450    1.000000    
    229 C1    c    0.629520 *  0.178820 *  0.007515 *  -0.13450    1.000000    
    230 C1    c    0.629520 *  0.178820 *  0.507515 *  -0.13450    1.000000    
    231 C1    c    0.629520 *  0.678820 *  0.007515 *  -0.13450    1.000000    
    232 C1    c    0.629520 *  0.678820 *  0.507515 *  -0.13450    1.000000    
    233 C1    c    0.120480 *  0.428820 *  0.242485 *  -0.13450    1.000000    
    234 C1    c    0.120480 *  0.428820 *  0.742485 *  -0.13450    1.000000    
    235 C1    c    0.120480 *  0.928820 *  0.242485 *  -0.13450    1.000000    
    236 C1    c    0.120480 *  0.928820 *  0.742485 *  -0.13450    1.000000    
    237 C1    c    0.620480 *  0.428820 *  0.242485 *  -0.13450    1.000000    
    238 C1    c    0.620480 *  0.428820 *  0.742485 *  -0.13450    1.000000    
    239 C1    c    0.620480 *  0.928820 *  0.242485 *  -0.13450    1.000000    
    240 C1    c    0.620480 *  0.928820 *  0.742485 *  -0.13450    1.000000    
    241 C1    c    0.370480 *  0.321180 *  0.492485 *  -0.13450    1.000000    
    242 C1    c    0.370480 *  0.321180 *  0.992485 *  -0.13450    1.000000    
    243 C1    c    0.370480 *  0.821180 *  0.492485 *  -0.13450    1.000000    
    244 C1    c    0.370480 *  0.821180 *  0.992485 *  -0.13450    1.000000    
    245 C1    c    0.870480 *  0.321180 *  0.492485 *  -0.13450    1.000000    
    246 C1    c    0.870480 *  0.321180 *  0.992485 *  -0.13450    1.000000    
    247 C1    c    0.870480 *  0.821180 *  0.492485 *  -0.13450    1.000000    
    248 C1    c    0.870480 *  0.821180 *  0.992485 *  -0.13450    1.000000    
    249 C1    c    0.379520 *  0.071180 *  0.257515 *  -0.13450    1.000000    
    250 C1    c    0.379520 *  0.071180 *  0.757515 *  -0.13450    1.000000    
    251 C1    c    0.379520 *  0.571180 *  0.257515 *  -0.13450    1.000000    
    252 C1    c    0.379520 *  0.571180 *  0.757515 *  -0.13450    1.000000    
    253 C1    c    0.879520 *  0.071180 *  0.257515 *  -0.13450    1.000000    
    254 C1    c    0.879520 *  0.071180 *  0.757515 *  -0.13450    1.000000    
    255 C1    c    0.879520 *  0.571180 *  0.257515 *  -0.13450    1.000000    
    256 C1    c    0.879520 *  0.571180 *  0.757515 *  -0.13450    1.000000    
    257 H1    c    0.186505 *  0.215445 *  0.001090 *   0.15300    1.000000    
    258 H1    c    0.186505 *  0.215445 *  0.501090 *   0.15300    1.000000    
    259 H1    c    0.186505 *  0.715445 *  0.001090 *   0.15300    1.000000    
    260 H1    c    0.186505 *  0.715445 *  0.501090 *   0.15300    1.000000    
    261 H1    c    0.686505 *  0.215445 *  0.001090 *   0.15300    1.000000    
    262 H1    c    0.686505 *  0.215445 *  0.501090 *   0.15300    1.000000    
    263 H1    c    0.686505 *  0.715445 *  0.001090 *   0.15300    1.000000    
    264 H1    c    0.686505 *  0.715445 *  0.501090 *   0.15300    1.000000    
    265 H1    c    0.063495 *  0.465445 *  0.248910 *   0.15300    1.000000    
    266 H1    c    0.063495 *  0.465445 *  0.748910 *   0.15300    1.000000    
    267 H1    c    0.063495 *  0.965445 *  0.248910 *   0.15300    1.000000    
    268 H1    c    0.063495 *  0.965445 *  0.748910 *   0.15300    1.000000    
    269 H1    c    0.563495 *  0.465445 *  0.248910 *   0.15300    1.000000    
    270 H1    c    0.563495 *  0.465445 *  0.748910 *   0.15300    1.000000    
    271 H1    c    0.563495 *  0.965445 *  0.248910 *   0.15300    1.000000    
    272 H1    c    0.563495 *  0.965445 *  0.748910 *   0.15300    1.000000    
    273 H1    c    0.313495 *  0.284555 *  0.498910 *   0.15300    1.000000    
    274 H1    c    0.313495 *  0.284555 *  0.998910 *   0.15300    1.000000    
    275 H1    c    0.313495 *  0.784555 *  0.498910 *   0.15300    1.000000    
    276 H1    c    0.313495 *  0.784555 *  0.998910 *   0.15300    1.000000    
    277 H1    c    0.813495 *  0.284555 *  0.498910 *   0.15300    1.000000    
    278 H1    c    0.813495 *  0.284555 *  0.998910 *   0.15300    1.000000    
    279 H1    c    0.813495 *  0.784555 *  0.498910 *   0.15300    1.000000    
    280 H1    c    0.813495 *  0.784555 *  0.998910 *   0.15300    1.000000    
    281 H1    c    0.436505 *  0.034555 *  0.251090 *   0.15300    1.000000    
    282 H1    c    0.436505 *  0.034555 *  0.751090 *   0.15300    1.000000    
    283 H1    c    0.436505 *  0.534555 *  0.251090 *   0.15300    1.000000    
    284 H1    c    0.436505 *  0.534555 *  0.751090 *   0.15300    1.000000    
    285 H1    c    0.936505 *  0.034555 *  0.251090 *   0.15300    1.000000    
    286 H1    c    0.936505 *  0.034555 *  0.751090 *   0.15300    1.000000    
    287 H1    c    0.936505 *  0.534555 *  0.251090 *   0.15300    1.000000    
    288 H1    c    0.936505 *  0.534555 *  0.751090 *   0.15300    1.000000    
    289 C1    c    0.480480 *  0.085420 *  0.026615 *  -0.15800    1.000000    
    290 C1    c    0.480480 *  0.085420 *  0.526615 *  -0.15800    1.000000    
    291 C1    c    0.480480 *  0.585420 *  0.026615 *  -0.15800    1.000000    
    292 C1    c    0.480480 *  0.585420 *  0.526615 *  -0.15800    1.000000    
    293 C1    c    0.980480 *  0.085420 *  0.026615 *  -0.15800    1.000000    
    294 C1    c    0.980480 *  0.085420 *  0.526615 *  -0.15800    1.000000    
    295 C1    c    0.980480 *  0.585420 *  0.026615 *  -0.15800    1.000000    
    296 C1    c    0.980480 *  0.585420 *  0.526615 *  -0.15800    1.000000    
    297 C1    c    0.269520 *  0.335420 *  0.223385 *  -0.15800    1.000000    
    298 C1    c    0.269520 *  0.335420 *  0.723385 *  -0.15800    1.000000    
    299 C1    c    0.269520 *  0.835420 *  0.223385 *  -0.15800    1.000000    
    300 C1    c    0.269520 *  0.835420 *  0.723385 *  -0.15800    1.000000    
    301 C1    c    0.769520 *  0.335420 *  0.223385 *  -0.15800    1.000000    
    302 C1    c    0.769520 *  0.335420 *  0.723385 *  -0.15800    1.000000    
    303 C1    c    0.769520 *  0.835420 *  0.223385 *  -0.15800    1.000000    
    304 C1    c    0.769520 *  0.835420 *  0.723385 *  -0.15800    1.000000    
    305 C1    c    0.019520 *  0.414580 *  0.473385 *  -0.15800    1.000000    
    306 C1    c    0.019520 *  0.414580 *  0.973385 *  -0.15800    1.000000    
    307 C1    c    0.019520 *  0.914580 *  0.473385 *  -0.15800    1.000000    
    308 C1    c    0.019520 *  0.914580 *  0.973385 *  -0.15800    1.000000    
    309 C1    c    0.519520 *  0.414580 *  0.473385 *  -0.15800    1.000000    
    310 C1    c    0.519520 *  0.414580 *  0.973385 *  -0.15800    1.000000    
    311 C1    c    0.519520 *  0.914580 *  0.473385 *  -0.15800    1.000000    
    312 C1    c    0.519520 *  0.914580 *  0.973385 *  -0.15800    1.000000    
    313 C1    c    0.230480 *  0.164580 *  0.276615 *  -0.15800    1.000000    
    314 C1    c    0.230480 *  0.164580 *  0.776615 *  -0.15800    1.000000    
    315 C1    c    0.230480 *  0.664580 *  0.276615 *  -0.15800    1.000000    
    316 C1    c    0.230480 *  0.664580 *  0.776615 *  -0.15800    1.000000    
    317 C1    c    0.730480 *  0.164580 *  0.276615 *  -0.15800    1.000000    
    318 C1    c    0.730480 *  0.164580 *  0.776615 *  -0.15800    1.000000    
    319 C1    c    0.730480 *  0.664580 *  0.276615 *  -0.15800    1.000000    
    320 C1    c    0.730480 *  0.664580 *  0.776615 *  -0.15800    1.000000    
    321 H1    c    0.423295 *  0.049040 *  0.033990 *   0.14350    1.000000    
    322 H1    c    0.423295 *  0.049040 *  0.533990 *   0.14350    1.000000    
    323 H1    c    0.423295 *  0.549040 *  0.033990 *   0.14350    1.000000    
    324 H1    c    0.423295 *  0.549040 *  0.533990 *   0.14350    1.000000    
    325 H1    c    0.923295 *  0.049040 *  0.033990 *   0.14350    1.000000    
    326 H1    c    0.923295 *  0.049040 *  0.533990 *   0.14350    1.000000    
    327 H1    c    0.923295 *  0.549040 *  0.033990 *   0.14350    1.000000    
    328 H1    c    0.923295 *  0.549040 *  0.533990 *   0.14350    1.000000    
    329 H1    c    0.326705 *  0.299040 *  0.216010 *   0.14350    1.000000    
    330 H1    c    0.326705 *  0.299040 *  0.716010 *   0.14350    1.000000    
    331 H1    c    0.326705 *  0.799040 *  0.216010 *   0.14350    1.000000    
    332 H1    c    0.326705 *  0.799040 *  0.716010 *   0.14350    1.000000    
    333 H1    c    0.826705 *  0.299040 *  0.216010 *   0.14350    1.000000    
    334 H1    c    0.826705 *  0.299040 *  0.716010 *   0.14350    1.000000    
    335 H1    c    0.826705 *  0.799040 *  0.216010 *   0.14350    1.000000    
    336 H1    c    0.826705 *  0.799040 *  0.716010 *   0.14350    1.000000    
    337 H1    c    0.076705 *  0.450960 *  0.466010 *   0.14350    1.000000    
    338 H1    c    0.076705 *  0.450960 *  0.966010 *   0.14350    1.000000    
    339 H1    c    0.076705 *  0.950960 *  0.466010 *   0.14350    1.000000    
    340 H1    c    0.076705 *  0.950960 *  0.966010 *   0.14350    1.000000    
    341 H1    c    0.576705 *  0.450960 *  0.466010 *   0.14350    1.000000    
    342 H1    c    0.576705 *  0.450960 *  0.966010 *   0.14350    1.000000    
    343 H1    c    0.576705 *  0.950960 *  0.466010 *   0.14350    1.000000    
    344 H1    c    0.576705 *  0.950960 *  0.966010 *   0.14350    1.000000    
    345 H1    c    0.173295 *  0.200960 *  0.283990 *   0.14350    1.000000    
    346 H1    c    0.173295 *  0.200960 *  0.783990 *   0.14350    1.000000    
    347 H1    c    0.173295 *  0.700960 *  0.283990 *   0.14350    1.000000    
    348 H1    c    0.173295 *  0.700960 *  0.783990 *   0.14350    1.000000    
    349 H1    c    0.673295 *  0.200960 *  0.283990 *   0.14350    1.000000    
    350 H1    c    0.673295 *  0.200960 *  0.783990 *   0.14350    1.000000    
    351 H1    c    0.673295 *  0.700960 *  0.283990 *   0.14350    1.000000    
    352 H1    c    0.673295 *  0.700960 *  0.783990 *   0.14350    1.000000    
    353 C3    c    0.046425 *  0.302520 *  0.338115 *  -0.17810    1.000000    
    354 C3    c    0.046425 *  0.302520 *  0.838115 *  -0.17810    1.000000    
    355 C3    c    0.046425 *  0.802520 *  0.338115 *  -0.17810    1.000000    
    356 C3    c    0.046425 *  0.802520 *  0.838115 *  -0.17810    1.000000    
    357 C3    c    0.546425 *  0.302520 *  0.338115 *  -0.17810    1.000000    
    358 C3    c    0.546425 *  0.302520 *  0.838115 *  -0.17810    1.000000    
    359 C3    c    0.546425 *  0.802520 *  0.338115 *  -0.17810    1.000000    
    360 C3    c    0.546425 *  0.802520 *  0.838115 *  -0.17810    1.000000    
    361 C3    c    0.203575 *  0.052520 *  0.411885 *  -0.17810    1.000000    
    362 C3    c    0.203575 *  0.052520 *  0.911885 *  -0.17810    1.000000    
    363 C3    c    0.203575 *  0.552520 *  0.411885 *  -0.17810    1.000000    
    364 C3    c    0.203575 *  0.552520 *  0.911885 *  -0.17810    1.000000    
    365 C3    c    0.703575 *  0.052520 *  0.411885 *  -0.17810    1.000000    
    366 C3    c    0.703575 *  0.052520 *  0.911885 *  -0.17810    1.000000    
    367 C3    c    0.703575 *  0.552520 *  0.411885 *  -0.17810    1.000000    
    368 C3    c    0.703575 *  0.552520 *  0.911885 *  -0.17810    1.000000    
    369 C3    c    0.453575 *  0.197480 *  0.161885 *  -0.17810    1.000000    
    370 C3    c    0.453575 *  0.197480 *  0.661885 *  -0.17810    1.000000    
    371 C3    c    0.453575 *  0.697480 *  0.161885 *  -0.17810    1.000000    
    372 C3    c    0.453575 *  0.697480 *  0.661885 *  -0.17810    1.000000    
    373 C3    c    0.953575 *  0.197480 *  0.161885 *  -0.17810    1.000000    
    374 C3    c    0.953575 *  0.197480 *  0.661885 *  -0.17810    1.000000    
    375 C3    c    0.953575 *  0.697480 *  0.161885 *  -0.17810    1.000000    
    376 C3    c    0.953575 *  0.697480 *  0.661885 *  -0.17810    1.000000    
    377 C3    c    0.296425 *  0.447480 *  0.088115 *  -0.17810    1.000000    
    378 C3    c    0.296425 *  0.447480 *  0.588115 *  -0.17810    1.000000    
    379 C3    c    0.296425 *  0.947480 *  0.088115 *  -0.17810    1.000000    
    380 C3    c    0.296425 *  0.947480 *  0.588115 *  -0.17810    1.000000    
    381 C3    c    0.796425 *  0.447480 *  0.088115 *  -0.17810    1.000000    
    382 C3    c    0.796425 *  0.447480 *  0.588115 *  -0.17810    1.000000    
    383 C3    c    0.796425 *  0.947480 *  0.088115 *  -0.17810    1.000000    
    384 C3    c    0.796425 *  0.947480 *  0.588115 *  -0.17810    1.000000    
    385 H4    c    0.472845 *  0.291055 *  0.325705 *   0.06870    1.000000    
    386 H4    c    0.472845 *  0.291055 *  0.825705 *   0.06870    1.000000    
    387 H4    c    0.472845 *  0.791055 *  0.325705 *   0.06870    1.000000    
    388 H4    c    0.472845 *  0.791055 *  0.825705 *   0.06870    1.000000    
    389 H4    c    0.972845 *  0.291055 *  0.325705 *   0.06870    1.000000    
    390 H4    c    0.972845 *  0.291055 *  0.825705 *   0.06870    1.000000    
    391 H4    c    0.972845 *  0.791055 *  0.325705 *   0.06870    1.000000    
    392 H4    c    0.972845 *  0.791055 *  0.825705 *   0.06870    1.000000    
    393 H4    c    0.277155 *  0.041055 *  0.424295 *   0.06870    1.000000    
    394 H4    c    0.277155 *  0.041055 *  0.924295 *   0.06870    1.000000    
    395 H4    c    0.277155 *  0.541055 *  0.424295 *   0.06870    1.000000    
    396 H4    c    0.277155 *  0.541055 *  0.924295 *   0.06870    1.000000    
    397 H4    c    0.777155 *  0.041055 *  0.424295 *   0.06870    1.000000    
    398 H4    c    0.777155 *  0.041055 *  0.924295 *   0.06870    1.000000    
    399 H4    c    0.777155 *  0.541055 *  0.424295 *   0.06870    1.000000    
    400 H4    c    0.777155 *  0.541055 *  0.924295 *   0.06870    1.000000    
    401 H4    c    0.027155 *  0.208945 *  0.174295 *   0.06870    1.000000    
    402 H4    c    0.027155 *  0.208945 *  0.674295 *   0.06870    1.000000    
    403 H4    c    0.027155 *  0.708945 *  0.174295 *   0.06870    1.000000    
    404 H4    c    0.027155 *  0.708945 *  0.674295 *   0.06870    1.000000    
    405 H4    c    0.527155 *  0.208945 *  0.174295 *   0.06870    1.000000    
    406 H4    c    0.527155 *  0.208945 *  0.674295 *   0.06870    1.000000    
    407 H4    c    0.527155 *  0.708945 *  0.174295 *   0.06870    1.000000    
    408 H4    c    0.527155 *  0.708945 *  0.674295 *   0.06870    1.000000    
    409 H4    c    0.222845 *  0.458945 *  0.075705 *   0.06870    1.000000    
    410 H4    c    0.222845 *  0.458945 *  0.575705 *   0.06870    1.000000    
    411 H4    c    0.222845 *  0.958945 *  0.075705 *   0.06870    1.000000    
    412 H4    c    0.222845 *  0.958945 *  0.575705 *   0.06870    1.000000    
    413 H4    c    0.722845 *  0.458945 *  0.075705 *   0.06870    1.000000    
    414 H4    c    0.722845 *  0.458945 *  0.575705 *   0.06870    1.000000    
    415 H4    c    0.722845 *  0.958945 *  0.075705 *   0.06870    1.000000    
    416 H4    c    0.722845 *  0.958945 *  0.575705 *   0.06870    1.000000    
    417 H4    c    0.085555 *  0.292805 *  0.301440 *   0.06870    1.000000    
    418 H4    c    0.085555 *  0.292805 *  0.801440 *   0.06870    1.000000    
    419 H4    c    0.085555 *  0.792805 *  0.301440 *   0.06870    1.000000    
    420 H4    c    0.085555 *  0.792805 *  0.801440 *   0.06870    1.000000    
    421 H4    c    0.585555 *  0.292805 *  0.301440 *   0.06870    1.000000    
    422 H4    c    0.585555 *  0.292805 *  0.801440 *   0.06870    1.000000    
    423 H4    c    0.585555 *  0.792805 *  0.301440 *   0.06870    1.000000    
    424 H4    c    0.585555 *  0.792805 *  0.801440 *   0.06870    1.000000    
    425 H4    c    0.164445 *  0.042805 *  0.448560 *   0.06870    1.000000    
    426 H4    c    0.164445 *  0.042805 *  0.948560 *   0.06870    1.000000    
    427 H4    c    0.164445 *  0.542805 *  0.448560 *   0.06870    1.000000    
    428 H4    c    0.164445 *  0.542805 *  0.948560 *   0.06870    1.000000    
    429 H4    c    0.664445 *  0.042805 *  0.448560 *   0.06870    1.000000    
    430 H4    c    0.664445 *  0.042805 *  0.948560 *   0.06870    1.000000    
    431 H4    c    0.664445 *  0.542805 *  0.448560 *   0.06870    1.000000    
    432 H4    c    0.664445 *  0.542805 *  0.948560 *   0.06870    1.000000    
    433 H4    c    0.414445 *  0.207195 *  0.198560 *   0.06870    1.000000    
    434 H4    c    0.414445 *  0.207195 *  0.698560 *   0.06870    1.000000    
    435 H4    c    0.414445 *  0.707195 *  0.198560 *   0.06870    1.000000    
    436 H4    c    0.414445 *  0.707195 *  0.698560 *   0.06870    1.000000    
    437 H4    c    0.914445 *  0.207195 *  0.198560 *   0.06870    1.000000    
    438 H4    c    0.914445 *  0.207195 *  0.698560 *   0.06870    1.000000    
    439 H4    c    0.914445 *  0.707195 *  0.198560 *   0.06870    1.000000    
    440 H4    c    0.914445 *  0.707195 *  0.698560 *   0.06870    1.000000    
    441 H4    c    0.335555 *  0.457195 *  0.051440 *   0.06870    1.000000    
    442 H4    c    0.335555 *  0.457195 *  0.551440 *   0.06870    1.000000    
    443 H4    c    0.335555 *  0.957195 *  0.051440 *   0.06870    1.000000    
    444 H4    c    0.335555 *  0.957195 *  0.551440 *   0.06870    1.000000    
    445 H4    c    0.835555 *  0.457195 *  0.051440 *   0.06870    1.000000    
    446 H4    c    0.835555 *  0.457195 *  0.551440 *   0.06870    1.000000    
    447 H4    c    0.835555 *  0.957195 *  0.051440 *   0.06870    1.000000    
    448 H4    c    0.835555 *  0.957195 *  0.551440 *   0.06870    1.000000    
    449 H4    c    0.053560 *  0.359895 *  0.348355 *   0.06870    1.000000    
    450 H4    c    0.053560 *  0.359895 *  0.848355 *   0.06870    1.000000    
    451 H4    c    0.053560 *  0.859895 *  0.348355 *   0.06870    1.000000    
    452 H4    c    0.053560 *  0.859895 *  0.848355 *   0.06870    1.000000    
    453 H4    c    0.553560 *  0.359895 *  0.348355 *   0.06870    1.000000    
    454 H4    c    0.553560 *  0.359895 *  0.848355 *   0.06870    1.000000    
    455 H4    c    0.553560 *  0.859895 *  0.348355 *   0.06870    1.000000    
    456 H4    c    0.553560 *  0.859895 *  0.848355 *   0.06870    1.000000    
    457 H4    c    0.196440 *  0.109895 *  0.401645 *   0.06870    1.000000    
    458 H4    c    0.196440 *  0.109895 *  0.901645 *   0.06870    1.000000    
    459 H4    c    0.196440 *  0.609895 *  0.401645 *   0.06870    1.000000    
    460 H4    c    0.196440 *  0.609895 *  0.901645 *   0.06870    1.000000    
    461 H4    c    0.696440 *  0.109895 *  0.401645 *   0.06870    1.000000    
    462 H4    c    0.696440 *  0.109895 *  0.901645 *   0.06870    1.000000    
    463 H4    c    0.696440 *  0.609895 *  0.401645 *   0.06870    1.000000    
    464 H4    c    0.696440 *  0.609895 *  0.901645 *   0.06870    1.000000    
    465 H4    c    0.446440 *  0.140105 *  0.151645 *   0.06870    1.000000    
    466 H4    c    0.446440 *  0.140105 *  0.651645 *   0.06870    1.000000    
    467 H4    c    0.446440 *  0.640105 *  0.151645 *   0.06870    1.000000    
    468 H4    c    0.446440 *  0.640105 *  0.651645 *   0.06870    1.000000    
    469 H4    c    0.946440 *  0.140105 *  0.151645 *   0.06870    1.000000    
    470 H4    c    0.946440 *  0.140105 *  0.651645 *   0.06870    1.000000    
    471 H4    c    0.946440 *  0.640105 *  0.151645 *   0.06870    1.000000    
    472 H4    c    0.946440 *  0.640105 *  0.651645 *   0.06870    1.000000    
    473 H4    c    0.303560 *  0.390105 *  0.098355 *   0.06870    1.000000    
    474 H4    c    0.303560 *  0.390105 *  0.598355 *   0.06870    1.000000    
    475 H4    c    0.303560 *  0.890105 *  0.098355 *   0.06870    1.000000    
    476 H4    c    0.303560 *  0.890105 *  0.598355 *   0.06870    1.000000    
    477 H4    c    0.803560 *  0.390105 *  0.098355 *   0.06870    1.000000    
    478 H4    c    0.803560 *  0.390105 *  0.598355 *   0.06870    1.000000    
    479 H4    c    0.803560 *  0.890105 *  0.098355 *   0.06870    1.000000    
    480 H4    c    0.803560 *  0.890105 *  0.598355 *   0.06870    1.000000    
    481 C1    c    0.140225 *  0.131320 *  0.054865 *  -0.15800    1.000000    
    482 C1    c    0.140225 *  0.131320 *  0.554865 *  -0.15800    1.000000    
    483 C1    c    0.140225 *  0.631320 *  0.054865 *  -0.15800    1.000000    
    484 C1    c    0.140225 *  0.631320 *  0.554865 *  -0.15800    1.000000    
    485 C1    c    0.640225 *  0.131320 *  0.054865 *  -0.15800    1.000000    
    486 C1    c    0.640225 *  0.131320 *  0.554865 *  -0.15800    1.000000    
    487 C1    c    0.640225 *  0.631320 *  0.054865 *  -0.15800    1.000000    
    488 C1    c    0.640225 *  0.631320 *  0.554865 *  -0.15800    1.000000    
    489 C1    c    0.109775 *  0.381320 *  0.195135 *  -0.15800    1.000000    
    490 C1    c    0.109775 *  0.381320 *  0.695135 *  -0.15800    1.000000    
    491 C1    c    0.109775 *  0.881320 *  0.195135 *  -0.15800    1.000000    
    492 C1    c    0.109775 *  0.881320 *  0.695135 *  -0.15800    1.000000    
    493 C1    c    0.609775 *  0.381320 *  0.195135 *  -0.15800    1.000000    
    494 C1    c    0.609775 *  0.381320 *  0.695135 *  -0.15800    1.000000    
    495 C1    c    0.609775 *  0.881320 *  0.195135 *  -0.15800    1.000000    
    496 C1    c    0.609775 *  0.881320 *  0.695135 *  -0.15800    1.000000    
    497 C1    c    0.359775 *  0.368680 *  0.445135 *  -0.15800    1.000000    
    498 C1    c    0.359775 *  0.368680 *  0.945135 *  -0.15800    1.000000    
    499 C1    c    0.359775 *  0.868680 *  0.445135 *  -0.15800    1.000000    
    500 C1    c    0.359775 *  0.868680 *  0.945135 *  -0.15800    1.000000    
    501 C1    c    0.859775 *  0.368680 *  0.445135 *  -0.15800    1.000000    
    502 C1    c    0.859775 *  0.368680 *  0.945135 *  -0.15800    1.000000    
    503 C1    c    0.859775 *  0.868680 *  0.445135 *  -0.15800    1.000000    
    504 C1    c    0.859775 *  0.868680 *  0.945135 *  -0.15800    1.000000    
    505 C1    c    0.390225 *  0.118680 *  0.304865 *  -0.15800    1.000000    
    506 C1    c    0.390225 *  0.118680 *  0.804865 *  -0.15800    1.000000    
    507 C1    c    0.390225 *  0.618680 *  0.304865 *  -0.15800    1.000000    
    508 C1    c    0.390225 *  0.618680 *  0.804865 *  -0.15800    1.000000    
    509 C1    c    0.890225 *  0.118680 *  0.304865 *  -0.15800    1.000000    
    510 C1    c    0.890225 *  0.118680 *  0.804865 *  -0.15800    1.000000    
    511 C1    c    0.890225 *  0.618680 *  0.304865 *  -0.15800    1.000000    
    512 C1    c    0.890225 *  0.618680 *  0.804865 *  -0.15800    1.000000    
    513 H1    c    0.206305 *  0.131745 *  0.085435 *   0.14350    1.000000    
    514 H1    c    0.206305 *  0.131745 *  0.585435 *   0.14350    1.000000    
    515 H1    c    0.206305 *  0.631745 *  0.085435 *   0.14350    1.000000    
    516 H1    c    0.206305 *  0.631745 *  0.585435 *   0.14350    1.000000    
    517 H1    c    0.706305 *  0.131745 *  0.085435 *   0.14350    1.000000    
    518 H1    c    0.706305 *  0.131745 *  0.585435 *   0.14350    1.000000    
    519 H1    c    0.706305 *  0.631745 *  0.085435 *   0.14350    1.000000    
    520 H1    c    0.706305 *  0.631745 *  0.585435 *   0.14350    1.000000    
    521 H1    c    0.043695 *  0.381745 *  0.164565 *   0.14350    1.000000    
    522 H1    c    0.043695 *  0.381745 *  0.664565 *   0.14350    1.000000    
    523 H1    c    0.043695 *  0.881745 *  0.164565 *   0.14350    1.000000    
    524 H1    c    0.043695 *  0.881745 *  0.664565 *   0.14350    1.000000    
    525 H1    c    0.543695 *  0.381745 *  0.164565 *   0.14350    1.000000    
    526 H1    c    0.543695 *  0.381745 *  0.664565 *   0.14350    1.000000    
    527 H1    c    0.543695 *  0.881745 *  0.164565 *   0.14350    1.000000    
    528 H1    c    0.543695 *  0.881745 *  0.664565 *   0.14350    1.000000    
    529 H1    c    0.293695 *  0.368255 *  0.414565 *   0.14350    1.000000    
    530 H1    c    0.293695 *  0.368255 *  0.914565 *   0.14350    1.000000    
    531 H1    c    0.293695 *  0.868255 *  0.414565 *   0.14350    1.000000    
    532 H1    c    0.293695 *  0.868255 *  0.914565 *   0.14350    1.000000    
    533 H1    c    0.793695 *  0.368255 *  0.414565 *   0.14350    1.000000    
    534 H1    c    0.793695 *  0.368255 *  0.914565 *   0.14350    1.000000    
    535 H1    c    0.793695 *  0.868255 *  0.414565 *   0.14350    1.000000    
    536 H1    c    0.793695 *  0.868255 *  0.914565 *   0.14350    1.000000    
    537 H1    c    0.456305 *  0.118255 *  0.335435 *   0.14350    1.000000    
    538 H1    c    0.456305 *  0.118255 *  0.835435 *   0.14350    1.000000    
    539 H1    c    0.456305 *  0.618255 *  0.335435 *   0.14350    1.000000    
    540 H1    c    0.456305 *  0.618255 *  0.835435 *   0.14350    1.000000    
    541 H1    c    0.956305 *  0.118255 *  0.335435 *   0.14350    1.000000    
    542 H1    c    0.956305 *  0.118255 *  0.835435 *   0.14350    1.000000    
    543 H1    c    0.956305 *  0.618255 *  0.335435 *   0.14350    1.000000    
    544 H1    c    0.956305 *  0.618255 *  0.835435 *   0.14350    1.000000    
    545 C2    c    0.089470 *  0.258365 *  0.390165 *   0.66510    1.000000    
    546 C2    c    0.089470 *  0.258365 *  0.890165 *   0.66510    1.000000    
    547 C2    c    0.089470 *  0.758365 *  0.390165 *   0.66510    1.000000    
    548 C2    c    0.089470 *  0.758365 *  0.890165 *   0.66510    1.000000    
    549 C2    c    0.589470 *  0.258365 *  0.390165 *   0.66510    1.000000    
    550 C2    c    0.589470 *  0.258365 *  0.890165 *   0.66510    1.000000    
    551 C2    c    0.589470 *  0.758365 *  0.390165 *   0.66510    1.000000    
    552 C2    c    0.589470 *  0.758365 *  0.890165 *   0.66510    1.000000    
    553 C2    c    0.160530 *  0.008365 *  0.359835 *   0.66510    1.000000    
    554 C2    c    0.160530 *  0.008365 *  0.859835 *   0.66510    1.000000    
    555 C2    c    0.160530 *  0.508365 *  0.359835 *   0.66510    1.000000    
    556 C2    c    0.160530 *  0.508365 *  0.859835 *   0.66510    1.000000    
    557 C2    c    0.660530 *  0.008365 *  0.359835 *   0.66510    1.000000    
    558 C2    c    0.660530 *  0.008365 *  0.859835 *   0.66510    1.000000    
    559 C2    c    0.660530 *  0.508365 *  0.359835 *   0.66510    1.000000    
    560 C2    c    0.660530 *  0.508365 *  0.859835 *   0.66510    1.000000    
    561 C2    c    0.410530 *  0.241635 *  0.109835 *   0.66510    1.000000    
    562 C2    c    0.410530 *  0.241635 *  0.609835 *   0.66510    1.000000    
    563 C2    c    0.410530 *  0.741635 *  0.109835 *   0.66510    1.000000    
    564 C2    c    0.410530 *  0.741635 *  0.609835 *   0.66510    1.000000    
    565 C2    c    0.910530 *  0.241635 *  0.109835 *   0.66510    1.000000    
    566 C2    c    0.910530 *  0.241635 *  0.609835 *   0.66510    1.000000    
    567 C2    c    0.910530 *  0.741635 *  0.109835 *   0.66510    1.000000    
    568 C2    c    0.910530 *  0.741635 *  0.609835 *   0.66510    1.000000    
    569 C2    c    0.339470 *  0.491635 *  0.140165 *   0.66510    1.000000    
    570 C2    c    0.339470 *  0.491635 *  0.640165 *   0.66510    1.000000    
    571 C2    c    0.339470 *  0.991635 *  0.140165 *   0.66510    1.000000    
    572 C2    c    0.339470 *  0.991635 *  0.640165 *   0.66510    1.000000    
    573 C2    c    0.839470 *  0.491635 *  0.140165 *   0.66510    1.000000    
    574 C2    c    0.839470 *  0.491635 *  0.640165 *   0.66510    1.000000    
    575 C2    c    0.839470 *  0.991635 *  0.140165 *   0.66510    1.000000    
    576 C2    c    0.839470 *  0.991635 *  0.640165 *   0.66510    1.000000    
    577 C1    c    0.469725 *  0.132970 *  0.479515 *  -0.13450    1.000000    
    578 C1    c    0.469725 *  0.132970 *  0.979515 *  -0.13450    1.000000    
    579 C1    c    0.469725 *  0.632970 *  0.479515 *  -0.13450    1.000000    
    580 C1    c    0.469725 *  0.632970 *  0.979515 *  -0.13450    1.000000    
    581 C1    c    0.969725 *  0.132970 *  0.479515 *  -0.13450    1.000000    
    582 C1    c    0.969725 *  0.132970 *  0.979515 *  -0.13450    1.000000    
    583 C1    c    0.969725 *  0.632970 *  0.479515 *  -0.13450    1.000000    
    584 C1    c    0.969725 *  0.632970 *  0.979515 *  -0.13450    1.000000    
    585 C1    c    0.280275 *  0.382970 *  0.270485 *  -0.13450    1.000000    
    586 C1    c    0.280275 *  0.382970 *  0.770485 *  -0.13450    1.000000    
    587 C1    c    0.280275 *  0.882970 *  0.270485 *  -0.13450    1.000000    
    588 C1    c    0.280275 *  0.882970 *  0.770485 *  -0.13450    1.000000    
    589 C1    c    0.780275 *  0.382970 *  0.270485 *  -0.13450    1.000000    
    590 C1    c    0.780275 *  0.382970 *  0.770485 *  -0.13450    1.000000    
    591 C1    c    0.780275 *  0.882970 *  0.270485 *  -0.13450    1.000000    
    592 C1    c    0.780275 *  0.882970 *  0.770485 *  -0.13450    1.000000    
    593 C1    c    0.030275 *  0.367030 *  0.020485 *  -0.13450    1.000000    
    594 C1    c    0.030275 *  0.367030 *  0.520485 *  -0.13450    1.000000    
    595 C1    c    0.030275 *  0.867030 *  0.020485 *  -0.13450    1.000000    
    596 C1    c    0.030275 *  0.867030 *  0.520485 *  -0.13450    1.000000    
    597 C1    c    0.530275 *  0.367030 *  0.020485 *  -0.13450    1.000000    
    598 C1    c    0.530275 *  0.367030 *  0.520485 *  -0.13450    1.000000    
    599 C1    c    0.530275 *  0.867030 *  0.020485 *  -0.13450    1.000000    
    600 C1    c    0.530275 *  0.867030 *  0.520485 *  -0.13450    1.000000    
    601 C1    c    0.219725 *  0.117030 *  0.229515 *  -0.13450    1.000000    
    602 C1    c    0.219725 *  0.117030 *  0.729515 *  -0.13450    1.000000    
    603 C1    c    0.219725 *  0.617030 *  0.229515 *  -0.13450    1.000000    
    604 C1    c    0.219725 *  0.617030 *  0.729515 *  -0.13450    1.000000    
    605 C1    c    0.719725 *  0.117030 *  0.229515 *  -0.13450    1.000000    
    606 C1    c    0.719725 *  0.117030 *  0.729515 *  -0.13450    1.000000    
    607 C1    c    0.719725 *  0.617030 *  0.229515 *  -0.13450    1.000000    
    608 C1    c    0.719725 *  0.617030 *  0.729515 *  -0.13450    1.000000    
    609 H1    c    0.402545 *  0.133795 *  0.449590 *   0.15300    1.000000    
    610 H1    c    0.402545 *  0.133795 *  0.949590 *   0.15300    1.000000    
    611 H1    c    0.402545 *  0.633795 *  0.449590 *   0.15300    1.000000    
    612 H1    c    0.402545 *  0.633795 *  0.949590 *   0.15300    1.000000    
    613 H1    c    0.902545 *  0.133795 *  0.449590 *   0.15300    1.000000    
    614 H1    c    0.902545 *  0.133795 *  0.949590 *   0.15300    1.000000    
    615 H1    c    0.902545 *  0.633795 *  0.449590 *   0.15300    1.000000    
    616 H1    c    0.902545 *  0.633795 *  0.949590 *   0.15300    1.000000    
    617 H1    c    0.347455 *  0.383795 *  0.300410 *   0.15300    1.000000    
    618 H1    c    0.347455 *  0.383795 *  0.800410 *   0.15300    1.000000    
    619 H1    c    0.347455 *  0.883795 *  0.300410 *   0.15300    1.000000    
    620 H1    c    0.347455 *  0.883795 *  0.800410 *   0.15300    1.000000    
    621 H1    c    0.847455 *  0.383795 *  0.300410 *   0.15300    1.000000    
    622 H1    c    0.847455 *  0.383795 *  0.800410 *   0.15300    1.000000    
    623 H1    c    0.847455 *  0.883795 *  0.300410 *   0.15300    1.000000    
    624 H1    c    0.847455 *  0.883795 *  0.800410 *   0.15300    1.000000    
    625 H1    c    0.097455 *  0.366205 *  0.050410 *   0.15300    1.000000    
    626 H1    c    0.097455 *  0.366205 *  0.550410 *   0.15300    1.000000    
    627 H1    c    0.097455 *  0.866205 *  0.050410 *   0.15300    1.000000    
    628 H1    c    0.097455 *  0.866205 *  0.550410 *   0.15300    1.000000    
    629 H1    c    0.597455 *  0.366205 *  0.050410 *   0.15300    1.000000    
    630 H1    c    0.597455 *  0.366205 *  0.550410 *   0.15300    1.000000    
    631 H1    c    0.597455 *  0.866205 *  0.050410 *   0.15300    1.000000    
    632 H1    c    0.597455 *  0.866205 *  0.550410 *   0.15300    1.000000    
    633 H1    c    0.152545 *  0.116205 *  0.199590 *   0.15300    1.000000    
    634 H1    c    0.152545 *  0.116205 *  0.699590 *   0.15300    1.000000    
    635 H1    c    0.152545 *  0.616205 *  0.199590 *   0.15300    1.000000    
    636 H1    c    0.152545 *  0.616205 *  0.699590 *   0.15300    1.000000    
    637 H1    c    0.652545 *  0.116205 *  0.199590 *   0.15300    1.000000    
    638 H1    c    0.652545 *  0.116205 *  0.699590 *   0.15300    1.000000    
    639 H1    c    0.652545 *  0.616205 *  0.199590 *   0.15300    1.000000    
    640 H1    c    0.652545    0.616205    0.699590     0.15300    1.000000    
--------------------------------------------------------------------------------



  Molecule list generated from bond lengths :

  Total number of molecules =    32

--------------------------------------------------------------------------------
Molecule No./:  Atoms
Periodicity  :  
--------------------------------------------------------------------------------
     1  0    : O1   c     1 H2   c    33 O2   c    66 N1   c    98 H3   c   134
             : C1   c   161 C1   c   194 C1   c   225 H1   c   257 C1   c   293
             : H1   c   325 C3   c   354 H4   c   390 H4   c   418 H4   c   450
             : C1   c   481 H1   c   513 C2   c   546 C1   c   582 H1   c   614
     2  0    : O1   c     2 H2   c    34 O2   c    65 N1   c    97 H3   c   133
             : C1   c   162 C1   c   193 C1   c   226 H1   c   258 C1   c   294
             : H1   c   326 C3   c   353 H4   c   389 H4   c   417 H4   c   449
             : C1   c   482 H1   c   514 C2   c   545 C1   c   581 H1   c   613
     3  0    : O1   c     3 H2   c    35 O2   c    68 N1   c   100 H3   c   136
             : C1   c   163 C1   c   196 C1   c   227 H1   c   259 C1   c   295
             : H1   c   327 C3   c   356 H4   c   392 H4   c   420 H4   c   452
             : C1   c   483 H1   c   515 C2   c   548 C1   c   584 H1   c   616
     4  0    : O1   c     4 H2   c    36 O2   c    67 N1   c    99 H3   c   135
             : C1   c   164 C1   c   195 C1   c   228 H1   c   260 C1   c   296
             : H1   c   328 C3   c   355 H4   c   391 H4   c   419 H4   c   451
             : C1   c   484 H1   c   516 C2   c   547 C1   c   583 H1   c   615
     5  0    : O1   c     5 H2   c    37 O2   c    70 N1   c   102 H3   c   130
             : C1   c   165 C1   c   198 C1   c   229 H1   c   261 C1   c   289
             : H1   c   321 C3   c   358 H4   c   386 H4   c   422 H4   c   454
             : C1   c   485 H1   c   517 C2   c   550 C1   c   578 H1   c   610
     6  0    : O1   c     6 H2   c    38 O2   c    69 N1   c   101 H3   c   129
             : C1   c   166 C1   c   197 C1   c   230 H1   c   262 C1   c   290
             : H1   c   322 C3   c   357 H4   c   385 H4   c   421 H4   c   453
             : C1   c   486 H1   c   518 C2   c   549 C1   c   577 H1   c   609
     7  0    : O1   c     7 H2   c    39 O2   c    72 N1   c   104 H3   c   132
             : C1   c   167 C1   c   200 C1   c   231 H1   c   263 C1   c   291
             : H1   c   323 C3   c   360 H4   c   388 H4   c   424 H4   c   456
             : C1   c   487 H1   c   519 C2   c   552 C1   c   580 H1   c   612
     8  0    : O1   c     8 H2   c    40 O2   c    71 N1   c   103 H3   c   131
             : C1   c   168 C1   c   199 C1   c   232 H1   c   264 C1   c   292
             : H1   c   324 C3   c   359 H4   c   387 H4   c   423 H4   c   455
             : C1   c   488 H1   c   520 C2   c   551 C1   c   579 H1   c   611
     9  0    : O1   c     9 H2   c    41 O2   c    75 N1   c   105 H3   c   137
             : C1   c   169 C1   c   201 C1   c   233 H1   c   265 C1   c   297
             : H1   c   329 C3   c   363 H4   c   395 H4   c   427 H4   c   459
             : C1   c   489 H1   c   521 C2   c   555 C1   c   585 H1   c   617
    10  0    : O1   c    10 H2   c    42 O2   c    76 N1   c   106 H3   c   138
             : C1   c   170 C1   c   202 C1   c   234 H1   c   266 C1   c   298
             : H1   c   330 C3   c   364 H4   c   396 H4   c   428 H4   c   460
             : C1   c   490 H1   c   522 C2   c   556 C1   c   586 H1   c   618
    11  0    : O1   c    11 H2   c    43 O2   c    73 N1   c   107 H3   c   139
             : C1   c   171 C1   c   203 C1   c   235 H1   c   267 C1   c   299
             : H1   c   331 C3   c   361 H4   c   393 H4   c   425 H4   c   457
             : C1   c   491 H1   c   523 C2   c   553 C1   c   587 H1   c   619
    12  0    : O1   c    12 H2   c    44 O2   c    74 N1   c   108 H3   c   140
             : C1   c   172 C1   c   204 C1   c   236 H1   c   268 C1   c   300
             : H1   c   332 C3   c   362 H4   c   394 H4   c   426 H4   c   458
             : C1   c   492 H1   c   524 C2   c   554 C1   c   588 H1   c   620
    13  0    : O1   c    13 H2   c    45 O2   c    79 N1   c   109 H3   c   141
             : C1   c   173 C1   c   205 C1   c   237 H1   c   269 C1   c   301
             : H1   c   333 C3   c   367 H4   c   399 H4   c   431 H4   c   463
             : C1   c   493 H1   c   525 C2   c   559 C1   c   589 H1   c   621
    14  0    : O1   c    14 H2   c    46 O2   c    80 N1   c   110 H3   c   142
             : C1   c   174 C1   c   206 C1   c   238 H1   c   270 C1   c   302
             : H1   c   334 C3   c   368 H4   c   400 H4   c   432 H4   c   464
             : C1   c   494 H1   c   526 C2   c   560 C1   c   590 H1   c   622
    15  0    : O1   c    15 H2   c    47 O2   c    77 N1   c   111 H3   c   143
             : C1   c   175 C1   c   207 C1   c   239 H1   c   271 C1   c   303
             : H1   c   335 C3   c   365 H4   c   397 H4   c   429 H4   c   461
             : C1   c   495 H1   c   527 C2   c   557 C1   c   591 H1   c   623
    16  0    : O1   c    16 H2   c    48 O2   c    78 N1   c   112 H3   c   144
             : C1   c   176 C1   c   208 C1   c   240 H1   c   272 C1   c   304
             : H1   c   336 C3   c   366 H4   c   398 H4   c   430 H4   c   462
             : C1   c   496 H1   c   528 C2   c   558 C1   c   592 H1   c   624
    17  0    : O1   c    17 H2   c    49 O2   c    82 N1   c   114 H3   c   150
             : C1   c   177 C1   c   210 C1   c   241 H1   c   273 C1   c   309
             : H1   c   341 C3   c   370 H4   c   406 H4   c   434 H4   c   466
             : C1   c   497 H1   c   529 C2   c   562 C1   c   598 H1   c   630
    18  0    : O1   c    18 H2   c    50 O2   c    81 N1   c   113 H3   c   149
             : C1   c   178 C1   c   209 C1   c   242 H1   c   274 C1   c   310
             : H1   c   342 C3   c   369 H4   c   405 H4   c   433 H4   c   465
             : C1   c   498 H1   c   530 C2   c   561 C1   c   597 H1   c   629
    19  0    : O1   c    19 H2   c    51 O2   c    84 N1   c   116 H3   c   152
             : C1   c   179 C1   c   212 C1   c   243 H1   c   275 C1   c   311
             : H1   c   343 C3   c   372 H4   c   408 H4   c   436 H4   c   468
             : C1   c   499 H1   c   531 C2   c   564 C1   c   600 H1   c   632
    20  0    : O1   c    20 H2   c    52 O2   c    83 N1   c   115 H3   c   151
             : C1   c   180 C1   c   211 C1   c   244 H1   c   276 C1   c   312
             : H1   c   344 C3   c   371 H4   c   407 H4   c   435 H4   c   467
             : C1   c   500 H1   c   532 C2   c   563 C1   c   599 H1   c   631
    21  0    : O1   c    21 H2   c    53 O2   c    86 N1   c   118 H3   c   146
             : C1   c   181 C1   c   214 C1   c   245 H1   c   277 C1   c   305
             : H1   c   337 C3   c   374 H4   c   402 H4   c   438 H4   c   470
             : C1   c   501 H1   c   533 C2   c   566 C1   c   594 H1   c   626
    22  0    : O1   c    22 H2   c    54 O2   c    85 N1   c   117 H3   c   145
             : C1   c   182 C1   c   213 C1   c   246 H1   c   278 C1   c   306
             : H1   c   338 C3   c   373 H4   c   401 H4   c   437 H4   c   469
             : C1   c   502 H1   c   534 C2   c   565 C1   c   593 H1   c   625
    23  0    : O1   c    23 H2   c    55 O2   c    88 N1   c   120 H3   c   148
             : C1   c   183 C1   c   216 C1   c   247 H1   c   279 C1   c   307
             : H1   c   339 C3   c   376 H4   c   404 H4   c   440 H4   c   472
             : C1   c   503 H1   c   535 C2   c   568 C1   c   596 H1   c   628
    24  0    : O1   c    24 H2   c    56 O2   c    87 N1   c   119 H3   c   147
             : C1   c   184 C1   c   215 C1   c   248 H1   c   280 C1   c   308
             : H1   c   340 C3   c   375 H4   c   403 H4   c   439 H4   c   471
             : C1   c   504 H1   c   536 C2   c   567 C1   c   595 H1   c   627
    25  0    : O1   c    25 H2   c    57 O2   c    91 N1   c   121 H3   c   153
             : C1   c   185 C1   c   217 C1   c   249 H1   c   281 C1   c   313
             : H1   c   345 C3   c   379 H4   c   411 H4   c   443 H4   c   475
             : C1   c   505 H1   c   537 C2   c   571 C1   c   601 H1   c   633
    26  0    : O1   c    26 H2   c    58 O2   c    92 N1   c   122 H3   c   154
             : C1   c   186 C1   c   218 C1   c   250 H1   c   282 C1   c   314
             : H1   c   346 C3   c   380 H4   c   412 H4   c   444 H4   c   476
             : C1   c   506 H1   c   538 C2   c   572 C1   c   602 H1   c   634
    27  0    : O1   c    27 H2   c    59 O2   c    89 N1   c   123 H3   c   155
             : C1   c   187 C1   c   219 C1   c   251 H1   c   283 C1   c   315
             : H1   c   347 C3   c   377 H4   c   409 H4   c   441 H4   c   473
             : C1   c   507 H1   c   539 C2   c   569 C1   c   603 H1   c   635
    28  0    : O1   c    28 H2   c    60 O2   c    90 N1   c   124 H3   c   156
             : C1   c   188 C1   c   220 C1   c   252 H1   c   284 C1   c   316
             : H1   c   348 C3   c   378 H4   c   410 H4   c   442 H4   c   474
             : C1   c   508 H1   c   540 C2   c   570 C1   c   604 H1   c   636
    29  0    : O1   c    29 H2   c    61 O2   c    95 N1   c   125 H3   c   157
             : C1   c   189 C1   c   221 C1   c   253 H1   c   285 C1   c   317
             : H1   c   349 C3   c   383 H4   c   415 H4   c   447 H4   c   479
             : C1   c   509 H1   c   541 C2   c   575 C1   c   605 H1   c   637
    30  0    : O1   c    30 H2   c    62 O2   c    96 N1   c   126 H3   c   158
             : C1   c   190 C1   c   222 C1   c   254 H1   c   286 C1   c   318
             : H1   c   350 C3   c   384 H4   c   416 H4   c   448 H4   c   480
             : C1   c   510 H1   c   542 C2   c   576 C1   c   606 H1   c   638
    31  0    : O1   c    31 H2   c    63 O2   c    93 N1   c   127 H3   c   159
             : C1   c   191 C1   c   223 C1   c   255 H1   c   287 C1   c   319
             : H1   c   351 C3   c   381 H4   c   413 H4   c   445 H4   c   477
             : C1   c   511 H1   c   543 C2   c   573 C1   c   607 H1   c   639
    32  0    : O1   c    32 H2   c    64 O2   c    94 N1   c   128 H3   c   160
             : C1   c   192 C1   c   224 C1   c   256 H1   c   288 C1   c   320
             : H1   c   352 C3   c   382 H4   c   414 H4   c   446 H4   c   478
             : C1   c   512 H1   c   544 C2   c   574 C1   c   608 H1   c   640
--------------------------------------------------------------------------------

  Brillouin zone sampling points :

--------------------------------------------------------------------------------
  Point number          x          y          z            Weight
--------------------------------------------------------------------------------
        1           0.000000   0.000000   0.000000     0.00632911
        2           0.000000   0.026316   0.000000     0.00632911
        3           0.000000   0.052632   0.000000     0.00632911
        4           0.000000   0.078947   0.000000     0.00632911
        5           0.000000   0.105263   0.000000     0.00632911
        6           0.000000   0.131579   0.000000     0.00632911
        7           0.000000   0.157895   0.000000     0.00632911
        8           0.000000   0.184211   0.000000     0.00632911
        9           0.000000   0.210526   0.000000     0.00632911
       10           0.000000   0.236842   0.000000     0.00632911
       11           0.000000   0.263158   0.000000     0.00632911
       12           0.000000   0.289474   0.000000     0.00632911
       13           0.000000   0.315789   0.000000     0.00632911
       14           0.000000   0.342105   0.000000     0.00632911
       15           0.000000   0.368421   0.000000     0.00632911
       16           0.000000   0.394737   0.000000     0.00632911
       17           0.000000   0.421053   0.000000     0.00632911
       18           0.000000   0.447368   0.000000     0.00632911
       19           0.000000   0.473684   0.000000     0.00632911
       20           0.000000   0.500000   0.000000     0.00632911
       21           0.000000   0.500000   0.000000     0.00632911
       22           0.026316   0.500000   0.000000     0.00632911
       23           0.052632   0.500000   0.000000     0.00632911
       24           0.078947   0.500000   0.000000     0.00632911
       25           0.105263   0.500000   0.000000     0.00632911
       26           0.131579   0.500000   0.000000     0.00632911
       27           0.157895   0.500000   0.000000     0.00632911
       28           0.184211   0.500000   0.000000     0.00632911
       29           0.210526   0.500000   0.000000     0.00632911
       30           0.236842   0.500000   0.000000     0.00632911
       31           0.263158   0.500000   0.000000     0.00632911
       32           0.289474   0.500000   0.000000     0.00632911
       33           0.315789   0.500000   0.000000     0.00632911
       34           0.342105   0.500000   0.000000     0.00632911
       35           0.368421   0.500000   0.000000     0.00632911
       36           0.394737   0.500000   0.000000     0.00632911
       37           0.421053   0.500000   0.000000     0.00632911
       38           0.447368   0.500000   0.000000     0.00632911
       39           0.473684   0.500000   0.000000     0.00632911
       40           0.500000   0.500000   0.000000     0.00632911
       41           0.500000   0.500000   0.000000     0.00632911
       42           0.500000   0.500000   0.026316     0.00632911
       43           0.500000   0.500000   0.052632     0.00632911
       44           0.500000   0.500000   0.078947     0.00632911
       45           0.500000   0.500000   0.105263     0.00632911
       46           0.500000   0.500000   0.131579     0.00632911
       47           0.500000   0.500000   0.157895     0.00632911
       48           0.500000   0.500000   0.184211     0.00632911
       49           0.500000   0.500000   0.210526     0.00632911
       50           0.500000   0.500000   0.236842     0.00632911
       51           0.500000   0.500000   0.263158     0.00632911
       52           0.500000   0.500000   0.289474     0.00632911
       53           0.500000   0.500000   0.315789     0.00632911
       54           0.500000   0.500000   0.342105     0.00632911
       55           0.500000   0.500000   0.368421     0.00632911
       56           0.500000   0.500000   0.394737     0.00632911
       57           0.500000   0.500000   0.421053     0.00632911
       58           0.500000   0.500000   0.447368     0.00632911
       59           0.500000   0.500000   0.473684     0.00632911
       60           0.500000   0.500000   0.500000     0.00632911
       61           0.500000   0.500000   0.500000     0.00632911
       62           0.473684   0.500000   0.500000     0.00632911
       63           0.447368   0.500000   0.500000     0.00632911
       64           0.421053   0.500000   0.500000     0.00632911
       65           0.394737   0.500000   0.500000     0.00632911
       66           0.368421   0.500000   0.500000     0.00632911
       67           0.342105   0.500000   0.500000     0.00632911
       68           0.315789   0.500000   0.500000     0.00632911
       69           0.289474   0.500000   0.500000     0.00632911
       70           0.263158   0.500000   0.500000     0.00632911
       71           0.236842   0.500000   0.500000     0.00632911
       72           0.210526   0.500000   0.500000     0.00632911
       73           0.184211   0.500000   0.500000     0.00632911
       74           0.157895   0.500000   0.500000     0.00632911
       75           0.131579   0.500000   0.500000     0.00632911
       76           0.105263   0.500000   0.500000     0.00632911
       77           0.078947   0.500000   0.500000     0.00632911
       78           0.052632   0.500000   0.500000     0.00632911
       79           0.026316   0.500000   0.500000     0.00632911
       80           0.000000   0.500000   0.500000     0.00632911
       81           0.000000   0.500000   0.500000     0.00632911
       82           0.000000   0.473684   0.500000     0.00632911
       83           0.000000   0.447368   0.500000     0.00632911
       84           0.000000   0.421053   0.500000     0.00632911
       85           0.000000   0.394737   0.500000     0.00632911
       86           0.000000   0.368421   0.500000     0.00632911
       87           0.000000   0.342105   0.500000     0.00632911
       88           0.000000   0.315789   0.500000     0.00632911
       89           0.000000   0.289474   0.500000     0.00632911
       90           0.000000   0.263158   0.500000     0.00632911
       91           0.000000   0.236842   0.500000     0.00632911
       92           0.000000   0.210526   0.500000     0.00632911
       93           0.000000   0.184211   0.500000     0.00632911
       94           0.000000   0.157895   0.500000     0.00632911
       95           0.000000   0.131579   0.500000     0.00632911
       96           0.000000   0.105263   0.500000     0.00632911
       97           0.000000   0.078947   0.500000     0.00632911
       98           0.000000   0.052632   0.500000     0.00632911
       99           0.000000   0.026316   0.500000     0.00632911
      100           0.000000   0.000000   0.500000     0.00632911
      101           0.000000   0.000000   0.500000     0.00632911
      102           0.026316   0.000000   0.500000     0.00632911
      103           0.052632   0.000000   0.500000     0.00632911
      104           0.078947   0.000000   0.500000     0.00632911
      105           0.105263   0.000000   0.500000     0.00632911
      106           0.131579   0.000000   0.500000     0.00632911
      107           0.157895   0.000000   0.500000     0.00632911
      108           0.184211   0.000000   0.500000     0.00632911
      109           0.210526   0.000000   0.500000     0.00632911
      110           0.236842   0.000000   0.500000     0.00632911
      111           0.263158   0.000000   0.500000     0.00632911
      112           0.289474   0.000000   0.500000     0.00632911
      113           0.315789   0.000000   0.500000     0.00632911
      114           0.342105   0.000000   0.500000     0.00632911
      115           0.368421   0.000000   0.500000     0.00632911
      116           0.394737   0.000000   0.500000     0.00632911
      117           0.421053   0.000000   0.500000     0.00632911
      118           0.447368   0.000000   0.500000     0.00632911
      119           0.473684   0.000000   0.500000     0.00632911
      120           0.500000   0.000000   0.500000     0.00632911
      121           0.500000   0.000000   0.500000     0.00632911
      122           0.500000   0.000000   0.473684     0.00632911
      123           0.500000   0.000000   0.447368     0.00632911
      124           0.500000   0.000000   0.421053     0.00632911
      125           0.500000   0.000000   0.394737     0.00632911
      126           0.500000   0.000000   0.368421     0.00632911
      127           0.500000   0.000000   0.342105     0.00632911
      128           0.500000   0.000000   0.315789     0.00632911
      129           0.500000   0.000000   0.289474     0.00632911
      130           0.500000   0.000000   0.263158     0.00632911
      131           0.500000   0.000000   0.236842     0.00632911
      132           0.500000   0.000000   0.210526     0.00632911
      133           0.500000   0.000000   0.184211     0.00632911
      134           0.500000   0.000000   0.157895     0.00632911
      135           0.500000   0.000000   0.131579     0.00632911
      136           0.500000   0.000000   0.105263     0.00632911
      137           0.500000   0.000000   0.078947     0.00632911
      138           0.500000   0.000000   0.052632     0.00632911
      139           0.500000   0.000000   0.026316     0.00632911
      140           0.500000   0.000000   0.000000     0.00632911
      141           0.500000   0.000000   0.000000     0.00632911
      142           0.500000   0.000000   0.000000     0.00632911
      143           0.125000   0.125000   0.250000     0.00632911
      144           0.125000   0.125000   0.750000     0.00632911
      145           0.125000   0.375000   0.250000     0.00632911
      146           0.125000   0.375000   0.750000     0.00632911
      147           0.125000   0.625000   0.250000     0.00632911
      148           0.125000   0.625000   0.750000     0.00632911
      149           0.125000   0.875000   0.250000     0.00632911
      150           0.125000   0.875000   0.750000     0.00632911
      151           0.375000   0.125000   0.250000     0.00632911
      152           0.375000   0.125000   0.750000     0.00632911
      153           0.375000   0.375000   0.250000     0.00632911
      154           0.375000   0.375000   0.750000     0.00632911
      155           0.375000   0.625000   0.250000     0.00632911
      156           0.375000   0.625000   0.750000     0.00632911
      157           0.375000   0.875000   0.250000     0.00632911
      158           0.375000   0.875000   0.750000     0.00632911
--------------------------------------------------------------------------------


********************************************************************************
*  General input information                                                   *
********************************************************************************

  Species output for all configurations : 

--------------------------------------------------------------------------------
  Species    Type    Atomic    Atomic    Charge       Radii (Angs)     Library
                     Number     Mass       (e)     Cova   Ionic  VDW   Symbol
--------------------------------------------------------------------------------
    C1       Core        6      12.01   0.000000   0.770  0.000  1.530 C_ca     
    C2       Core        6      12.01   0.000000   0.770  0.000  1.530 C_c      
    C3       Core        6      12.01   0.000000   0.770  0.000  1.530 C_c3     
    H1       Core        1       1.01   0.000000   0.370  0.000  1.080 H_ha     
    H2       Core        1       1.01   0.000000   0.370  0.000  1.080 H_ho     
    H3       Core        1       1.01   0.000000   0.370  0.000  1.080 H_hn     
    H4       Core        1       1.01   0.000000   0.370  0.000  1.080 H_hc     
    O1       Core        8      16.00   0.000000   0.730  0.000  1.360 O_oh     
    O2       Core        8      16.00   0.000000   0.730  0.000  1.360 O_o      
    N1       Core        7      14.01   0.000000   0.750  0.000  1.480 N_n      
    X        Core      107       0.00   0.000000   0.000  0.000  0.000          
--------------------------------------------------------------------------------


  Lattice summation method               =    Ewald          (3-D)
                                         =    Parry          (2-D)
                                         =    Saunders et al (1-D)
  Accuracy factor for lattice sums       =   12.000


  Analytic derivatives to be used

  Time limit = Infinity

  Maximum range for interatomic potentials =        10.000000 Angstroms

  Taper potentials to zero over   2.0000 Angstroms using M-D-F

  General interatomic potentials :

--------------------------------------------------------------------------------
Atom  Types   Potential      Parameter       Value         Units   Cutoffs(Ang)
  1     2                                                            Min /  Max 
--------------------------------------------------------------------------------
H1   c H1   c Lenn/es       Lennard epsilon 0.65046648E-03eV        3Bond 12.000
                            Lennard sigma/m  2.9180000    Ang       
                            Exponent m        12          None
                            Exponent n         6          None
--------------------------------------------------------------------------------
H1   c H4   c Lenn/es       Lennard epsilon 0.66547098E-03eV        3Bond 12.000
                            Lennard sigma/m  2.9460000    Ang       
                            Exponent m        12          None
                            Exponent n         6          None
--------------------------------------------------------------------------------
H4   c H4   c Lenn/es       Lennard epsilon 0.68082158E-03eV        3Bond 12.000
                            Lennard sigma/m  2.9740000    Ang       
                            Exponent m        12          None
                            Exponent n         6          None
--------------------------------------------------------------------------------
H1   c H3   c Lenn/es       Lennard epsilon 0.66547098E-03eV        3Bond 12.000
                            Lennard sigma/m  2.0590000    Ang       
                            Exponent m        12          None
                            Exponent n         6          None
--------------------------------------------------------------------------------
H3   c H4   c Lenn/es       Lennard epsilon 0.68082158E-03eV        3Bond 12.000
                            Lennard sigma/m  2.0870000    Ang       
                            Exponent m        12          None
                            Exponent n         6          None
--------------------------------------------------------------------------------
H3   c H3   c Lenn/es       Lennard epsilon 0.68082158E-03eV        3Bond 12.000
                            Lennard sigma/m  1.2000000    Ang       
                            Exponent m        12          None
                            Exponent n         6          None
[...]



  Phonon dispersion curves : 

--------------------------------------------------------------------------------
  Section number =   1
--------------------------------------------------------------------------------
  Frequency (cm-1) Phonon dispersion                                            
--------------------------------------------------------------------------------
  3098.19   |  *  *  *  *  *  *  *  *  *  *  *  *  *  *  *  *  *  *  *  *
  2969.10   |  *  *  *  *  *  *  *  *  *  *  *  *  *  *  *  *  *  *  *  *
  2840.01   |  *  *  *  *  *  *  *  *  *  *  *  *  *  *  *  *  *  *  *  *
  2710.92   |                                                            
  2581.83   |                                                            
  2452.74   |                                                            
  2323.64   |                                                            
  2194.55   |                                                            
  2065.46   |                                                            
  1936.37   |                                                            
  1807.28   |  *  *  *  *  *  *  *  *  *  *  *  *  *  *  *  *  *  *  *  *
  1678.19   |  *  *  *  *  *  *  *  *  *  *  *  *  *  *  *  *  *  *  *  *
  1549.10   |  *  *  *  *  *  *  *  *  *  *  *  *  *  *  *  *  *  *  *  *
  1420.00   |  *  *  *  *  *  *  *  *  *  *  *  *  *  *  *  *  *  *  *  *
  1290.91   |  *  *  *  *  *  *  *  *  *  *  *  *  *  *  *  *  *  *  *  *
  1161.82   |  *  *  *  *  *  *  *  *  *  *  *  *  *  *  *  *  *  *  *  *
  1032.73   |  *  *  *  *  *  *  *  *  *  *  *  *  *  *  *  *  *  *  *  *
   903.64   |  *  *  *  *  *  *  *  *  *  *  *  *  *  *  *  *  *  *  *  *
   774.55   |  *  *  *  *  *  *  *  *  *  *  *  *  *  *  *  *  *  *  *  *
   645.46   |  *  *  *  *  *  *  *  *  *  *  *  *  *  *  *  *  *  *  *  *
   516.37   |  *  *  *  *  *  *  *  *  *  *  *  *  *  *  *  *  *  *  *  *
   387.27   |  *  *  *  *  *  *  *  *  *  *  *  *  *  *  *  *  *  *  *  *
   258.18   |  *  *  *  *  *  *  *  *  *  *  *  *  *  *  *  *  *  *  *  *
   129.09   |  *  *  *  *  *  *  *  *  *  *  *  *  *  *  *  *  *  *  *  *
     0.00   |  *  *  *  *  *  *  *  *  *  *  *  *  *  *  *  *  *  *  *  *
--------------------------------------------------------------------------------
  Section number =   2
--------------------------------------------------------------------------------
  Frequency (cm-1) Phonon dispersion                                            
--------------------------------------------------------------------------------
  3098.19   |  *  *  *  *  *  *  *  *  *  *  *  *  *  *  *  *  *  *  *  *
  2969.10   |  *  *  *  *  *  *  *  *  *  *  *  *  *  *  *  *  *  *  *  *
  2840.01   |  *  *  *  *  *  *  *  *  *  *  *  *  *  *  *  *  *  *  *  *
  2710.92   |                                                            
  2581.83   |                                                            
  2452.74   |                                                            
  2323.64   |                                                            
  2194.55   |                                                            
  2065.46   |                                                            
  1936.37   |                                                            
  1807.28   |  *  *  *  *  *  *  *  *  *  *  *  *  *  *  *  *  *  *  *  *
  1678.19   |  *  *  *  *  *  *  *  *  *  *  *  *  *  *  *  *  *  *  *  *
  1549.10   |  *  *  *  *  *  *  *  *  *  *  *  *  *  *  *  *  *  *  *  *
  1420.00   |  *  *  *  *  *  *  *  *  *  *  *  *  *  *  *  *  *  *  *  *
  1290.91   |  *  *  *  *  *  *  *  *  *  *  *  *  *  *  *  *  *  *  *  *
  1161.82   |  *  *  *  *  *  *  *  *  *  *  *  *  *  *  *  *  *  *  *  *
  1032.73   |  *  *  *  *  *  *  *  *  *  *  *  *  *  *  *  *  *  *  *  *
   903.64   |  *  *  *  *  *  *  *  *  *  *  *  *  *  *  *  *  *  *  *  *
   774.55   |  *  *  *  *  *  *  *  *  *  *  *  *  *  *  *  *  *  *  *  *
   645.46   |  *  *  *  *  *  *  *  *  *  *  *  *  *  *  *  *  *  *  *  *
   516.37   |  *  *  *  *  *  *  *  *  *  *  *  *  *  *  *  *  *  *  *  *
   387.27   |  *  *  *  *  *  *  *  *  *  *  *  *  *  *  *  *  *  *  *  *
   258.18   |  *  *  *  *  *  *  *  *  *  *  *  *  *  *  *  *  *  *  *  *
   129.09   |  *  *  *  *  *  *  *  *  *  *  *  *  *  *  *  *  *  *  *  *
     0.00   |  *  *  *  *  *  *  *  *  *  *  *  *  *  *  *  *  *  *  *  *
--------------------------------------------------------------------------------
  Section number =   3
--------------------------------------------------------------------------------
  Frequency (cm-1) Phonon dispersion                                            
--------------------------------------------------------------------------------
  3098.19   |  *  *  *  *  *  *  *  *  *  *  *  *  *  *  *  *  *  *  *  *
  2969.10   |  *  *  *  *  *  *  *  *  *  *  *  *  *  *  *  *  *  *  *  *
  2840.01   |  *  *  *  *  *  *  *  *  *  *  *  *  *  *  *  *  *  *  *  *
  2710.92   |                                                            
  2581.83   |                                                            
  2452.74   |                                                            
  2323.64   |                                                            
  2194.55   |                                                            
  2065.46   |                                                            
  1936.37   |                                                            
  1807.28   |  *  *  *  *  *  *  *  *  *  *  *  *  *  *  *  *  *  *  *  *
  1678.19   |  *  *  *  *  *  *  *  *  *  *  *  *  *  *  *  *  *  *  *  *
  1549.10   |  *  *  *  *  *  *  *  *  *  *  *  *  *  *  *  *  *  *  *  *
  1420.00   |  *  *  *  *  *  *  *  *  *  *  *  *  *  *  *  *  *  *  *  *
  1290.91   |  *  *  *  *  *  *  *  *  *  *  *  *  *  *  *  *  *  *  *  *
  1161.82   |  *  *  *  *  *  *  *  *  *  *  *  *  *  *  *  *  *  *  *  *
  1032.73   |  *  *  *  *  *  *  *  *  *  *  *  *  *  *  *  *  *  *  *  *
   903.64   |  *  *  *  *  *  *  *  *  *  *  *  *  *  *  *  *  *  *  *  *
   774.55   |  *  *  *  *  *  *  *  *  *  *  *  *  *  *  *  *  *  *  *  *
   645.46   |  *  *  *  *  *  *  *  *  *  *  *  *  *  *  *  *  *  *  *  *
   516.37   |  *  *  *  *  *  *  *  *  *  *  *  *  *  *  *  *  *  *  *  *
   387.27   |  *  *  *  *  *  *  *  *  *  *  *  *  *  *  *  *  *  *  *  *
   258.18   |  *  *  *  *  *  *  *  *  *  *  *  *  *  *  *  *  *  *  *  *
   129.09   |  *  *  *  *  *  *  *  *  *  *  *  *  *  *  *  *  *  *  *  *
     0.00   |  *  *  *  *  *  *  *  *  *  *  *  *  *  *  *  *  *  *  *  *
--------------------------------------------------------------------------------
  Section number =   4
--------------------------------------------------------------------------------
  Frequency (cm-1) Phonon dispersion                                            
--------------------------------------------------------------------------------
  3098.19   |  *  *  *  *  *  *  *  *  *  *  *  *  *  *  *  *  *  *  *  *
  2969.10   |  *  *  *  *  *  *  *  *  *  *  *  *  *  *  *  *  *  *  *  *
  2840.01   |  *  *  *  *  *  *  *  *  *  *  *  *  *  *  *  *  *  *  *  *
  2710.92   |                                                            
  2581.83   |                                                            
  2452.74   |                                                            
  2323.64   |                                                            
  2194.55   |                                                            
  2065.46   |                                                            
  1936.37   |                                                            
  1807.28   |  *  *  *  *  *  *  *  *  *  *  *  *  *  *  *  *  *  *  *  *
  1678.19   |  *  *  *  *  *  *  *  *  *  *  *  *  *  *  *  *  *  *  *  *
  1549.10   |  *  *  *  *  *  *  *  *  *  *  *  *  *  *  *  *  *  *  *  *
  1420.00   |  *  *  *  *  *  *  *  *  *  *  *  *  *  *  *  *  *  *  *  *
  1290.91   |  *  *  *  *  *  *  *  *  *  *  *  *  *  *  *  *  *  *  *  *
  1161.82   |  *  *  *  *  *  *  *  *  *  *  *  *  *  *  *  *  *  *  *  *
  1032.73   |  *  *  *  *  *  *  *  *  *  *  *  *  *  *  *  *  *  *  *  *
   903.64   |  *  *  *  *  *  *  *  *  *  *  *  *  *  *  *  *  *  *  *  *
   774.55   |  *  *  *  *  *  *  *  *  *  *  *  *  *  *  *  *  *  *  *  *
   645.46   |  *  *  *  *  *  *  *  *  *  *  *  *  *  *  *  *  *  *  *  *
   516.37   |  *  *  *  *  *  *  *  *  *  *  *  *  *  *  *  *  *  *  *  *
   387.27   |  *  *  *  *  *  *  *  *  *  *  *  *  *  *  *  *  *  *  *  *
   258.18   |  *  *  *  *  *  *  *  *  *  *  *  *  *  *  *  *  *  *  *  *
   129.09   |  *  *  *  *  *  *  *  *  *  *  *  *  *  *  *  *  *  *  *  *
     0.00   |  *  *  *  *  *  *  *  *  *  *  *  *  *  *  *  *  *  *  *  *
--------------------------------------------------------------------------------
  Section number =   5
--------------------------------------------------------------------------------
  Frequency (cm-1) Phonon dispersion                                            
--------------------------------------------------------------------------------
  3098.19   |  *  *  *  *  *  *  *  *  *  *  *  *  *  *  *  *  *  *  *  *
  2969.10   |  *  *  *  *  *  *  *  *  *  *  *  *  *  *  *  *  *  *  *  *
  2840.01   |  *  *  *  *  *  *  *  *  *  *  *  *  *  *  *  *  *  *  *  *
  2710.92   |                                                            
  2581.83   |                                                            
  2452.74   |                                                            
  2323.64   |                                                            
  2194.55   |                                                            
  2065.46   |                                                            
  1936.37   |                                                            
  1807.28   |  *  *  *  *  *  *  *  *  *  *  *  *  *  *  *  *  *  *  *  *
  1678.19   |  *  *  *  *  *  *  *  *  *  *  *  *  *  *  *  *  *  *  *  *
  1549.10   |  *  *  *  *  *  *  *  *  *  *  *  *  *  *  *  *  *  *  *  *
  1420.00   |  *  *  *  *  *  *  *  *  *  *  *  *  *  *  *  *  *  *  *  *
  1290.91   |  *  *  *  *  *  *  *  *  *  *  *  *  *  *  *  *  *  *  *  *
  1161.82   |  *  *  *  *  *  *  *  *  *  *  *  *  *  *  *  *  *  *  *  *
  1032.73   |  *  *  *  *  *  *  *  *  *  *  *  *  *  *  *  *  *  *  *  *
   903.64   |  *  *  *  *  *  *  *  *  *  *  *  *  *  *  *  *  *  *  *  *
   774.55   |  *  *  *  *  *  *  *  *  *  *  *  *  *  *  *  *  *  *  *  *
   645.46   |  *  *  *  *  *  *  *  *  *  *  *  *  *  *  *  *  *  *  *  *
   516.37   |  *  *  *  *  *  *  *  *  *  *  *  *  *  *  *  *  *  *  *  *
   387.27   |  *  *  *  *  *  *  *  *  *  *  *  *  *  *  *  *  *  *  *  *
   258.18   |  *  *  *  *  *  *  *  *  *  *  *  *  *  *  *  *  *  *  *  *
   129.09   |  *  *  *  *  *  *  *  *  *  *  *  *  *  *  *  *  *  *  *  *
     0.00   |  *  *  *  *  *  *  *  *  *  *  *  *  *  *  *  *  *  *  *  *
--------------------------------------------------------------------------------
  Section number =   6
--------------------------------------------------------------------------------
  Frequency (cm-1) Phonon dispersion                                            
--------------------------------------------------------------------------------
  3098.19   |  *  *  *  *  *  *  *  *  *  *  *  *  *  *  *  *  *  *  *  *
  2969.10   |  *  *  *  *  *  *  *  *  *  *  *  *  *  *  *  *  *  *  *  *
  2840.01   |  *  *  *  *  *  *  *  *  *  *  *  *  *  *  *  *  *  *  *  *
  2710.92   |                                                            
  2581.83   |                                                            
  2452.74   |                                                            
  2323.64   |                                                            
  2194.55   |                                                            
  2065.46   |                                                            
  1936.37   |                                                            
  1807.28   |  *  *  *  *  *  *  *  *  *  *  *  *  *  *  *  *  *  *  *  *
  1678.19   |  *  *  *  *  *  *  *  *  *  *  *  *  *  *  *  *  *  *  *  *
  1549.10   |  *  *  *  *  *  *  *  *  *  *  *  *  *  *  *  *  *  *  *  *
  1420.00   |  *  *  *  *  *  *  *  *  *  *  *  *  *  *  *  *  *  *  *  *
  1290.91   |  *  *  *  *  *  *  *  *  *  *  *  *  *  *  *  *  *  *  *  *
  1161.82   |  *  *  *  *  *  *  *  *  *  *  *  *  *  *  *  *  *  *  *  *
  1032.73   |  *  *  *  *  *  *  *  *  *  *  *  *  *  *  *  *  *  *  *  *
   903.64   |  *  *  *  *  *  *  *  *  *  *  *  *  *  *  *  *  *  *  *  *
   774.55   |  *  *  *  *  *  *  *  *  *  *  *  *  *  *  *  *  *  *  *  *
   645.46   |  *  *  *  *  *  *  *  *  *  *  *  *  *  *  *  *  *  *  *  *
   516.37   |  *  *  *  *  *  *  *  *  *  *  *  *  *  *  *  *  *  *  *  *
   387.27   |  *  *  *  *  *  *  *  *  *  *  *  *  *  *  *  *  *  *  *  *
   258.18   |  *  *  *  *  *  *  *  *  *  *  *  *  *  *  *  *  *  *  *  *
   129.09   |  *  *  *  *  *  *  *  *  *  *  *  *  *  *  *  *  *  *  *  *
     0.00   |  *  *  *  *  *  *  *  *  *  *  *  *  *  *  *  *  *  *  *  *
--------------------------------------------------------------------------------
  Section number =   7
--------------------------------------------------------------------------------
  Frequency (cm-1) Phonon dispersion                                            
--------------------------------------------------------------------------------
  3098.19   |  *  *  *  *  *  *  *  *  *  *  *  *  *  *  *  *  *  *  *  *
  2969.10   |  *  *  *  *  *  *  *  *  *  *  *  *  *  *  *  *  *  *  *  *
  2840.01   |  *  *  *  *  *  *  *  *  *  *  *  *  *  *  *  *  *  *  *  *
  2710.92   |                                                            
  2581.83   |                                                            
  2452.74   |                                                            
  2323.64   |                                                            
  2194.55   |                                                            
  2065.46   |                                                            
  1936.37   |                                                            
  1807.28   |  *  *  *  *  *  *  *  *  *  *  *  *  *  *  *  *  *  *  *  *
  1678.19   |  *  *  *  *  *  *  *  *  *  *  *  *  *  *  *  *  *  *  *  *
  1549.10   |  *  *  *  *  *  *  *  *  *  *  *  *  *  *  *  *  *  *  *  *
  1420.00   |  *  *  *  *  *  *  *  *  *  *  *  *  *  *  *  *  *  *  *  *
  1290.91   |  *  *  *  *  *  *  *  *  *  *  *  *  *  *  *  *  *  *  *  *
  1161.82   |  *  *  *  *  *  *  *  *  *  *  *  *  *  *  *  *  *  *  *  *
  1032.73   |  *  *  *  *  *  *  *  *  *  *  *  *  *  *  *  *  *  *  *  *
   903.64   |  *  *  *  *  *  *  *  *  *  *  *  *  *  *  *  *  *  *  *  *
   774.55   |  *  *  *  *  *  *  *  *  *  *  *  *  *  *  *  *  *  *  *  *
   645.46   |  *  *  *  *  *  *  *  *  *  *  *  *  *  *  *  *  *  *  *  *
   516.37   |  *  *  *  *  *  *  *  *  *  *  *  *  *  *  *  *  *  *  *  *
   387.27   |  *  *  *  *  *  *  *  *  *  *  *  *  *  *  *  *  *  *  *  *
   258.18   |  *  *  *  *  *  *  *  *  *  *  *  *  *  *  *  *  *  *  *  *
   129.09   |  *  *  *  *  *  *  *  *  *  *  *  *  *  *  *  *  *  *  *  *
     0.00   |  *  *  *  *  *  *  *  *  *  *  *  *  *  *  *  *  *  *  *  *
--------------------------------------------------------------------------------
  Section number =   8
--------------------------------------------------------------------------------
  Frequency (cm-1) Phonon dispersion                                            
--------------------------------------------------------------------------------
  3098.19   |                             *                             *
  2969.10   |                             *                             *
  2840.01   |                             *                             *
  2710.92   |                                                            
  2581.83   |                                                            
  2452.74   |                                                            
  2323.64   |                                                            
  2194.55   |                                                            
  2065.46   |                                                            
  1936.37   |                                                            
  1807.28   |                             *                             *
  1678.19   |                             *                             *
  1549.10   |                             *                             *
  1420.00   |                             *                             *
  1290.91   |                             *                             *
  1161.82   |                             *                             *
  1032.73   |                             *                             *
   903.64   |                             *                             *
   774.55   |                             *                             *
   645.46   |                             *                             *
   516.37   |                             *                             *
   387.27   |                             *                             *
   258.18   |                             *                             *
   129.09   |                             *                             *
     0.00   |                             *                             *
--------------------------------------------------------------------------------


  Phonon dispersion written as F1-centralpoint.disp                                                                                                    

  Time to end of optimisation =    1106.5635 seconds


  Peak dynamic memory used =      25.33 MB 


  Timing analysis for GULP :

--------------------------------------------------------------------------------
  Task / Subroutine                                          Time (Seconds)
--------------------------------------------------------------------------------
  Calculation of reciprocal space energy and derivatives        411.5670
  Calculation of real space energy and derivatives              165.8324
  Calculation of three-body energy and derivatives                7.1195
  Calculation of four-body energy and derivatives                55.1150
  Calculation of molecules and connectivity                       0.2955
  Calculation of phonons                                       1017.7633
  Calculation and manipulation of Hessian matrix                  0.0489
  Calculation of matrix diagonalisation                         435.4032
  Calculation of matrix inversion                                10.0549
  Disk read/write operations to scratch files                     0.4168
  Symmetry generation of equivalent positions                     0.0010
  Global summation overhead                                      17.8730
--------------------------------------------------------------------------------
  Total CPU time                                               1106.5636
--------------------------------------------------------------------------------


  Job Finished at 23:37.29 10th January    2023                               

Note: The following floating-point exceptions are signalling: IEEE_INVALID_FLAG
Note: The following floating-point exceptions are signalling: IEEE_INVALID_FLAG
Note: The following floating-point exceptions are signalling: IEEE_INVALID_FLAG
Note: The following floating-point exceptions are signalling: IEEE_INVALID_FLAG
Note: The following floating-point exceptions are signalling: IEEE_INVALID_FLAG
Note: The following floating-point exceptions are signalling: IEEE_INVALID_FLAG
