Lmod has detected the following error: The following module(s) are unknown:
"epcc-job-env"

Please check the spelling or version number. Also try "module spider ..."
It is also possible your cache file is out-of-date; it may help to try:
  $ module --ignore-cache load "epcc-job-env"

Also make sure that all modulefiles written in TCL start with the string
#%Module




Warning: You have enabled access to software packages installed
by external parties on ARCHER2 or those that are not fully-supported.
The ARCHER2 CSE service does not test these packages. The service desk
will make reasonable efforts to assist with questions on the use of
these packages but some issues may not be able to be resolved by the
service and they may direct you to seek help from external parties.


         512 PROCESSORS WORKING

         
 *******************************************************************************
 *                                                                             *
 *                               CRYSTAL17                                     *
 *                      public : 1.0.2 - March 1st, 2018 STFC/Archer2 build    *
 *                       HTTP://WWW.CRYSTAL.UNITO.IT                           *
 *                                                                             *
 *                              MAIN AUTHORS                                   *
 *                                                                             *
 *  R. DOVESI(1,11), V.R. SAUNDERS(2), C. ROETTI(1,11), R. ORLANDO(1,11),      *
 *  C.M. ZICOVICH-WILSON(1,3), F. PASCALE(4), B. CIVALLERI(1,11),              *
 *  K. DOLL(5), N.M. HARRISON(2,6), I.J. BUSH(7), Ph. D'ARCO(8),               *
 *  M. LLUNELL(9), M. CAUSA'(10), Y. NOEL(8), L. MASCHIO(1,11), A. ERBA(1,11)  *
 *  M. RE'RAT(14), S. CASASSA(1,11)                                            *
 *                                                                             *
 *        CONTRIBUTIONS TO THE CODE HAVE ALSO BEEN GIVEN BY                    *
 *                                                                             *
 *  M. FERRABONE(1,11), M. DE LA PIERRE(1,11), M. FERRERO(1,11),               *
 *  J. BAIMA(1,11), E. ALBANESE(1,11), M.F. PEINTINGER(12), R. BAST(13),       *
 *  B. KIRTMAN(15), V. LACIVITA(1,11), R. DEMICHELIS(1,16)                     *
 *  G. BRANDEBURG(17), S. SALUSTRO(1,11), G. SANSONE(1,11)                     *
 *  M.T. RUGGIERO(18)                                                          *
 *                                                                             *
 * (1) THEORETICAL CHEMISTRY GROUP - UNIVERSITA' DI TORINO - TORINO (ITALY)    *
 * (2) COMPUTATIONAL SCIENCE & ENGINEERING DEPARTMENT - STFC DARESBURY (UK)    *
 * (3) UNIVERSIDAD AUTONOMA DEL ESTADO DE MORELOS - CUERNAVACA (MEXICO)        *
 * (4) UNIVERSITE' DE LORRAINE - NANCY (FRANCE)                                *
 * (5) UNIVERSITAET STUTTGART- STUTTGART (GERMANY)                             *
 * (6) IMPERIAL COLLEGE - LONDON (UK)                                          *
 * (7) OXFORD E-RESEARCH CENTRE - OXFORD (UK)                                  *
 * (8) UPMC - SORBONNE UNIVERSITES - PARIS (FRANCE)                            *
 * (9) UNIVERSIDAD DE BARCELONA - BARCELONA (SPAIN)                            *
 *(10) UNIVERSITA' DI NAPOLI "FEDERICO II" - NAPOLI (ITALY)                    *
 *(11) NIS - NANOSTRUCTURED INTERFACES AND SURFACES - TORINO (ITALY)           *
 *(12) MPI FUER CHEMISCHE ENERGIEKONVERSION - MUELHEIM AN DER RUHR (GERMANY)   *
 *(13) UNIVERSITY OF TROMSO - TROMSO (NORWAY)                                  *
 *(14) UNIVERSITE' DE PAU ET DES PAYS DE L'ADOUR - PAU (FRANCE)                *
 *(15) UNIVERSITY OF CALIFORNIA SANTA BARBARA - SANTA BARBARA (USA)            *
 *(16) CURTIN UNIVERSITY - PERTH (AUSTRALIA)                                   *
 *(17) UNIVERSITY COLLEGE LONDON - LONDON (UK)                                 *
 *(18) CAMBRIDGE UNIVERSITY - CAMBRIDGE (UK)                                   *
 *                                                                             *
 *******************************************************************************
 EEEEEEEEEE STARTING  DATE 06 03 2022 TIME 22:48:48.2
 F1 vol step-4 freq - PBEh-3c                                                    

 GEOMETRY INPUT FROM EXTERNAL FILE (FORTRAN UNIT 34)
 3D - CRYSTAL 

 *******************************************************************************
 LATTICE PARAMETERS  (ANGSTROMS AND DEGREES) - PRIMITIVE CELL
       A          B          C        ALPHA      BETA     GAMMA        VOLUME
    7.10620    9.11767   12.56347    90.00000 115.99808  90.00000    731.640687

 NUMBER OF IRREDUCIBLE ATOMS IN THE CELL:   20

 CARTESIAN COORDINATES (ANGSTROM) - IRREDUCIBLE ATOMS AND SYMMETRY RELATED

 AT.IRR.  AT  AT.N.          X                   Y                   Z
     1     1     8    2.788082575882E+00 -5.884507868900E-01  2.422936204438E+00
     1     2     8    1.545439042155E+00  3.970382045638E+00  3.237841594004E+00
     1     3     8   -2.788082575882E+00  5.884507868900E-01 -2.422936204438E+00
     1     4     8   -1.545439042155E+00 -3.970382045638E+00 -3.237841594004E+00
     5     5     8    7.821048208610E-01  4.483818159541E+00 -2.216893831399E+00
     5     6     8    1.990532138923E+00 -7.501467298800E-02 -3.419830696241E+00
     5     7     8   -7.821048208610E-01 -4.483818159541E+00  2.216893831399E+00
     5     8     8   -1.990532138923E+00  7.501467298800E-02  3.419830696241E+00
     9     9     7    2.959260417192E+00 -4.179255053287E+00 -1.808532892374E+00
     9    10     7   -1.866234574080E-01  3.795777792410E-01 -3.828191635266E+00
     9    11     7   -2.959260417192E+00  4.179255053287E+00  1.808532892374E+00
     9    12     7    1.866234574080E-01 -3.795777792410E-01  3.828191635266E+00
    13    13     6    2.864797576546E+00 -3.305208494976E+00 -7.125527404950E-01
    13    14     6   -9.216061676200E-02  1.253624337552E+00 -4.924171787144E+00
    13    15     6   -2.864797576546E+00  3.305208494976E+00  7.125527404950E-01
    13    16     6    9.216061676200E-02 -1.253624337552E+00  4.924171787144E+00
    17    17     6    1.790065189864E+00 -3.256770902699E+00  1.677966624800E-01
    17    18     6    9.825717699200E-01  1.302061929829E+00 -5.804521190120E+00
    17    19     6   -1.790065189864E+00  3.256770902699E+00 -1.677966624800E-01
    17    20     6   -9.825717699200E-01 -1.302061929829E+00  5.804521190120E+00
    21    21     6    1.785343361582E+00 -2.346294053393E+00  1.213794318154E+00
    21    22     6    2.548178256455E+00  2.212538779136E+00  4.446983480289E+00
    21    23     6   -1.785343361582E+00  2.346294053393E+00 -1.213794318154E+00
    21    24     6   -2.548178256455E+00 -2.212538779136E+00 -4.446983480289E+00
    25    25     6    2.854249772983E+00 -1.478709030081E+00  1.413216052555E+00
    25    26     6    1.479271845054E+00  3.080123802447E+00  4.247561745887E+00
    25    27     6   -2.854249772983E+00  1.478709030081E+00 -1.413216052555E+00
    25    28     6   -1.479271845054E+00 -3.080123802447E+00 -4.247561745887E+00
    29    29     6   -3.160837174578E+00 -1.553452430671E+00  5.288251089060E-01
    29    30     6    3.882002147930E-01  3.005380401857E+00  5.107899418734E+00
    29    31     6    3.160837174578E+00  1.553452430671E+00 -5.288251089060E-01
    29    32     6   -3.882002147930E-01 -3.005380401857E+00 -5.107899418734E+00
    33    33     6   -3.162955675037E+00 -2.452885367303E+00 -5.196440009440E-01
    33    34     6   -1.170565943000E+00  2.105947465225E+00 -5.141133797499E+00
    33    35     6    3.162955675037E+00  2.452885367303E+00  5.196440009440E-01
    33    36     6    1.170565943000E+00 -2.105947465225E+00  5.141133797499E+00
    37    37     6    1.974281515220E+00  4.366790258335E+00 -2.509746751453E+00
    37    38     6    7.983554445640E-01 -1.920425741930E-01 -3.126977776187E+00
    37    39     6   -1.974281515220E+00 -4.366790258335E+00  2.509746751453E+00
    37    40     6   -7.983554445640E-01  1.920425741930E-01  3.126977776187E+00
    41    41     6    2.417068155434E+00  3.556661398104E+00 -3.693691654245E+00
    41    42     6    3.555688043500E-01 -1.002171434424E+00 -1.943032873395E+00
    41    43     6   -2.417068155434E+00 -3.556661398104E+00  3.693691654245E+00
    41    44     6   -3.555688043500E-01  1.002171434424E+00  1.943032873395E+00
    45    45     1    9.474313604820E-01 -3.918304118823E+00  5.636509223300E-02
    45    46     1    1.825205599302E+00  6.405287137050E-01 -5.693089619873E+00
    45    47     1   -9.474313604820E-01  3.918304118823E+00 -5.636509223300E-02
    45    48     1   -1.825205599302E+00 -6.405287137050E-01  5.693089619873E+00
    49    49     1    9.343413585140E-01 -2.324267845274E+00  1.882474606116E+00
    49    50     1    3.399180259523E+00  2.234564987254E+00  3.778303192326E+00
    49    51     1   -9.343413585140E-01  2.324267845274E+00 -1.882474606116E+00
    49    52     1   -3.399180259523E+00 -2.234564987254E+00 -3.778303192326E+00
    53    53     1   -2.312590999046E+00 -8.950181797770E-01  6.576505799850E-01
    53    54     1   -4.600459607390E-01  3.663814652751E+00  4.979073947655E+00
    53    55     1    2.312590999046E+00  8.950181797770E-01 -6.576505799850E-01
    53    56     1    4.600459607390E-01 -3.663814652751E+00 -4.979073947655E+00
    57    57     1   -2.305437931363E+00 -2.493545430421E+00 -1.178437916704E+00
    57    58     1   -2.028083686674E+00  2.065287402107E+00 -4.482339881738E+00
    57    59     1    2.305437931363E+00  2.493545430421E+00  1.178437916704E+00
    57    60     1    2.028083686674E+00 -2.065287402107E+00  4.482339881738E+00
    61    61     1   -3.435810089365E+00 -2.234565547310E-01  2.642579470902E+00
    61    62     1    6.631731295800E-01  4.335376277797E+00  2.994145056738E+00
    61    63     1    3.435810089365E+00  2.234565547310E-01 -2.642579470902E+00
    61    64     1   -6.631731295800E-01 -4.335376277797E+00 -2.994145056738E+00
    65    65     1   -3.207278822500E+00 -4.307532139862E+00 -2.192386036043E+00
    65    66     1   -1.126242795537E+00  2.513006926660E-01 -3.468391762399E+00
    65    67     1    3.207278822500E+00  4.307532139862E+00  2.192386036043E+00
    65    68     1    1.126242795537E+00 -2.513006926660E-01  3.468391762399E+00
    69    69     1    1.784970571502E+00  3.770099592924E+00 -4.553893955022E+00
    69    70     1    9.876663882830E-01 -7.887332396040E-01 -1.082830572618E+00
    69    71     1   -1.784970571502E+00 -3.770099592924E+00  4.553893955022E+00
    69    72     1   -9.876663882830E-01  7.887332396040E-01  1.082830572618E+00
    73    73     1    3.456189764901E+00  3.727066151853E+00 -3.965769320126E+00
    73    74     1   -6.835528051170E-01 -8.317666806750E-01 -1.670955207514E+00
    73    75     1   -3.456189764901E+00 -3.727066151853E+00  3.965769320126E+00
    73    76     1    6.835528051170E-01  8.317666806750E-01  1.670955207514E+00
    77    77     1    2.290976122220E+00  2.496409896087E+00 -3.480996766412E+00
    77    78     1    4.816608375650E-01 -2.062422936441E+00 -2.155727761228E+00
    77    79     1   -2.290976122220E+00 -2.496409896087E+00  3.480996766412E+00
    77    80     1   -4.816608375650E-01  2.062422936441E+00  2.155727761228E+00

 SPACE  GROUP  N.                     :   14
 NUMBER OF SYMMETRY OPERATORS         :    4
 *******************************************************************************
 LATTICE PARAMETERS (ANGSTROMS AND DEGREES) - BOHR = 0.5291772083 ANGSTROM
 PRIMITIVE CELL - CENTRING CODE 1/0 VOLUME=   731.640687 - DENSITY  1.371 g/cm^3
         A              B              C           ALPHA      BETA       GAMMA 
     7.10619929     9.11766567    12.56346753    90.000000 115.998081  90.000000
 *******************************************************************************
 ATOMS IN THE ASYMMETRIC UNIT   20 - ATOMS IN THE UNIT CELL:   80
     ATOM                 X/A                 Y/B                 Z/C    
 *******************************************************************************
      1 T   8 O    -4.408680421935E-01 -6.453963201842E-02  2.137311518616E-01
      2 F   8 O     4.408680421931E-01  4.354603679814E-01  2.862688481374E-01
      3 F   8 O     4.408680421935E-01  6.453963201842E-02 -2.137311518616E-01
      4 F   8 O    -4.408680421931E-01 -4.354603679814E-01 -2.862688481374E-01
      5 T   8 O    -4.332101780392E-02  4.917726010423E-01 -1.965549148585E-01
      6 F   8 O     4.332101780447E-02 -8.227398957550E-03 -3.034450851406E-01
      7 F   8 O     4.332101780392E-02 -4.917726010423E-01  1.965549148585E-01
      8 F   8 O    -4.332101780447E-02  8.227398957550E-03  3.034450851406E-01
      9 T   7 N     2.907653460405E-01 -4.583689736840E-01 -1.610444808041E-01
     10 F   7 N    -2.907653460399E-01  4.163102631582E-02 -3.389555191950E-01
     11 F   7 N    -2.907653460405E-01  4.583689736840E-01  1.610444808041E-01
     12 F   7 N     2.907653460399E-01 -4.163102631582E-02  3.389555191950E-01
     13 T   6 C     3.532319413416E-01 -3.625059983985E-01 -6.395993989943E-02
     14 F   6 C    -3.532319413410E-01  1.374940016013E-01 -4.360400600996E-01
     15 F   6 C    -3.532319413416E-01  3.625059983985E-01  6.395993989943E-02
     16 F   6 C     3.532319413410E-01 -1.374940016013E-01  4.360400600996E-01
     17 T   6 C     2.630802128848E-01 -3.571934991189E-01  1.432292123596E-02
     18 F   6 C    -2.630802128842E-01  1.428065008809E-01  4.856770787649E-01
     19 F   6 C    -2.630802128848E-01  3.571934991189E-01 -1.432292123596E-02
     20 F   6 C     2.630802128842E-01 -1.428065008809E-01 -4.856770787649E-01
     21 T   6 C     3.347004067653E-01 -2.573349516844E-01  1.069542845954E-01
     22 F   6 C    -3.347004067657E-01  2.426650483155E-01  3.930457154037E-01
     23 F   6 C    -3.347004067653E-01  2.573349516844E-01 -1.069542845954E-01
     24 F   6 C     3.347004067657E-01 -2.426650483155E-01 -3.930457154037E-01
     25 T   6 C     4.986511214304E-01 -1.621806594365E-01  1.242939809478E-01
     26 F   6 C    -4.986511214309E-01  3.378193405633E-01  3.757060190513E-01
     27 F   6 C    -4.986511214304E-01  1.621806594365E-01 -1.242939809478E-01
     28 F   6 C     4.986511214309E-01 -3.378193405633E-01 -3.757060190513E-01
     29 T   6 C    -4.075187560077E-01 -1.703783059982E-01  4.777839197741E-02
     30 F   6 C     4.075187560070E-01  3.296216940016E-01  4.522216080217E-01
     31 F   6 C     4.075187560077E-01  1.703783059982E-01 -4.777839197741E-02
     32 F   6 C    -4.075187560070E-01 -3.296216940016E-01 -4.522216080217E-01
     33 T   6 C    -4.802707310797E-01 -2.690255880628E-01 -4.506978445534E-02
     34 F   6 C     4.802707310801E-01  2.309744119370E-01 -4.549302155438E-01
     35 F   6 C     4.802707310797E-01  2.690255880628E-01  4.506978445534E-02
     36 F   6 C    -4.802707310801E-01 -2.309744119370E-01  4.549302155438E-01
     37 T   6 C     1.039292387641E-01  4.789373090383E-01 -2.228463159104E-01
     38 F   6 C    -1.039292387635E-01 -2.106269096145E-02 -2.771536840887E-01
     39 F   6 C    -1.039292387641E-01 -4.789373090383E-01  2.228463159104E-01
     40 F   6 C     1.039292387635E-01  2.106269096145E-02  2.771536840887E-01
     41 T   6 C     8.431954453407E-02  3.900846476235E-01 -3.278251222811E-01
     42 F   6 C    -8.431954453352E-02 -1.099153523763E-01 -1.721748777180E-01
     43 F   6 C    -8.431954453407E-02 -3.900846476235E-01  3.278251222811E-01
     44 F   6 C     8.431954453352E-02  1.099153523763E-01  1.721748777180E-01
     45 T   1 H     1.369988800749E-01 -4.297486070188E-01  4.707505290577E-03
     46 F   1 H    -1.369988800744E-01  7.025139298095E-02  4.952924947103E-01
     47 F   1 H    -1.369988800749E-01  4.297486070188E-01 -4.707505290577E-03
     48 F   1 H     1.369988800744E-01 -7.025139298095E-02 -4.952924947103E-01
     49 T   1 H     2.613529856661E-01 -2.549191789496E-01  1.664253949943E-01
     50 F   1 H    -2.613529856666E-01  2.450808210502E-01  3.335746050047E-01
     51 F   1 H    -2.613529856661E-01  2.549191789496E-01 -1.664253949943E-01
     52 F   1 H     2.613529856666E-01 -2.450808210502E-01 -3.335746050047E-01
     53 T   1 H    -2.794469460466E-01 -9.816308391377E-02  5.893246953921E-02
     54 F   1 H     2.794469460459E-01  4.018369160860E-01  4.410675304599E-01
     55 F   1 H     2.794469460466E-01  9.816308391377E-02 -5.893246953921E-02
     56 F   1 H    -2.794469460459E-01 -4.018369160860E-01 -4.410675304599E-01
     57 T   1 H    -4.053247227436E-01 -2.734850697560E-01 -1.036673448961E-01
     58 F   1 H     4.053247227440E-01  2.265149302438E-01 -3.963326551029E-01
     59 F   1 H     4.053247227436E-01  2.734850697560E-01  1.036673448961E-01
     60 F   1 H    -4.053247227440E-01 -2.265149302438E-01  3.963326551029E-01
     61 T   1 H    -3.000786770089E-01 -2.450808824756E-02  2.350476177773E-01
     62 F   1 H     3.000786770082E-01  4.754919117522E-01  2.649523822218E-01
     63 F   1 H     3.000786770089E-01  2.450808824756E-02 -2.350476177773E-01
     64 F   1 H    -3.000786770082E-01 -4.754919117522E-01 -2.649523822218E-01
     65 T   1 H     3.979076854937E-01 -4.724380447913E-01 -1.931887691043E-01
     66 F   1 H    -3.979076854933E-01  2.756195520845E-02 -3.068112308947E-01
     67 F   1 H    -3.979076854937E-01  4.724380447913E-01  1.931887691043E-01
     68 F   1 H     3.979076854933E-01 -2.756195520845E-02  3.068112308947E-01
     69 T   1 H    -6.392746478617E-02  4.134939502521E-01 -4.038122022878E-01
     70 F   1 H     6.392746478686E-02 -8.650604974764E-02 -9.618779771134E-02
     71 F   1 H     6.392746478617E-02 -4.134939502521E-01  4.038122022878E-01
     72 F   1 H    -6.392746478686E-02  8.650604974764E-02  9.618779771134E-02
     73 T   1 H     2.115029022256E-01  4.087741631211E-01 -3.522308600705E-01
     74 F   1 H    -2.115029022251E-01 -9.122583687867E-02 -1.477691399287E-01
     75 F   1 H    -2.115029022256E-01 -4.087741631211E-01  3.522308600705E-01
     76 F   1 H     2.115029022251E-01  9.122583687867E-02  1.477691399287E-01
     77 T   1 H     8.130324677375E-02  2.737992363170E-01 -3.089517997854E-01
     78 F   1 H    -8.130324677306E-02 -2.262007636828E-01 -1.910482002137E-01
     79 F   1 H    -8.130324677375E-02 -2.737992363170E-01  3.089517997854E-01
     80 F   1 H     8.130324677306E-02  2.262007636828E-01  1.910482002137E-01

 T = ATOM BELONGING TO THE ASYMMETRIC UNIT
 *******************************************************************************
 * GEOMETRY EDITING - INPUT COORDINATES ARE GIVEN IN ANGSTROM         
 *******************************************************************************

 GEOMETRY NOW FULLY CONSISTENT WITH THE GROUP

 FRQFRQFRQFRQFRQFRQFRQFRQFRQFRQFRQFRQFRQFRQFRQFRQFRQFRQFRQFRQFRQFRQFRQFRQFRQFRQ

                       FREQUENCY CALCULATION

 INFORMATION **** INPFREQ ****  PRINTING OF EIGENVECTORS
 INFORMATION **** INPFREQ **** NEW DEFAULT - IMPOSING ECKART CONDITIONS TO THE HESSIAN

 GCALCO - MAX INDICES DIRECT LATTICE VECTOR    20    14    11
 NO.OF VECTORS CREATED 6999 STARS 1868 RMAX   201.98050 BOHR

 GEOMETRY FOR WAVE FUNCTION - DIMENSIONALITY OF THE SYSTEM    3
 (NON PERIODIC DIRECTION: LATTICE PARAMETER FORMALLY SET TO 500)
 *******************************************************************************
 LATTICE PARAMETERS (ANGSTROMS AND DEGREES) - BOHR = 0.5291772083 ANGSTROM
 PRIMITIVE CELL - CENTRING CODE 1/0 VOLUME=   731.640687 - DENSITY  1.371 g/cm^3
         A              B              C           ALPHA      BETA       GAMMA 
     7.10619929     9.11766567    12.56346753    90.000000 115.998081  90.000000
 *******************************************************************************
 ATOMS IN THE ASYMMETRIC UNIT   20 - ATOMS IN THE UNIT CELL:   80
     ATOM                 X/A                 Y/B                 Z/C    
 *******************************************************************************
      1 T   8 O    -4.408680421935E-01 -6.453963201842E-02  2.137311518616E-01
      2 F   8 O     4.408680421935E-01  4.354603679816E-01  2.862688481375E-01
      3 F   8 O     4.408680421935E-01  6.453963201842E-02 -2.137311518616E-01
      4 F   8 O    -4.408680421935E-01 -4.354603679816E-01 -2.862688481393E-01
      5 T   8 O    -4.332101780392E-02  4.917726010423E-01 -1.965549148585E-01
      6 F   8 O     4.332101780393E-02 -8.227398957660E-03 -3.034450851424E-01
      7 F   8 O     4.332101780392E-02 -4.917726010423E-01  1.965549148585E-01
      8 F   8 O    -4.332101780391E-02  8.227398957659E-03  3.034450851406E-01
      9 T   7 N     2.907653460405E-01 -4.583689736840E-01 -1.610444808041E-01
     10 F   7 N    -2.907653460405E-01  4.163102631604E-02 -3.389555191968E-01
     11 F   7 N    -2.907653460405E-01  4.583689736840E-01  1.610444808041E-01
     12 F   7 N     2.907653460405E-01 -4.163102631604E-02  3.389555191950E-01
     13 T   6 C     3.532319413416E-01 -3.625059983985E-01 -6.395993989943E-02
     14 F   6 C    -3.532319413416E-01  1.374940016015E-01 -4.360400601015E-01
     15 F   6 C    -3.532319413416E-01  3.625059983985E-01  6.395993989943E-02
     16 F   6 C     3.532319413416E-01 -1.374940016015E-01  4.360400600997E-01
     17 T   6 C     2.630802128848E-01 -3.571934991189E-01  1.432292123596E-02
     18 F   6 C    -2.630802128848E-01  1.428065008811E-01  4.856770787632E-01
     19 F   6 C    -2.630802128848E-01  3.571934991189E-01 -1.432292123596E-02
     20 F   6 C     2.630802128848E-01 -1.428065008811E-01 -4.856770787649E-01
     21 T   6 C     3.347004067653E-01 -2.573349516844E-01  1.069542845954E-01
     22 F   6 C    -3.347004067653E-01  2.426650483156E-01  3.930457154037E-01
     23 F   6 C    -3.347004067653E-01  2.573349516844E-01 -1.069542845954E-01
     24 F   6 C     3.347004067653E-01 -2.426650483156E-01 -3.930457154055E-01
     25 T   6 C     4.986511214304E-01 -1.621806594365E-01  1.242939809478E-01
     26 F   6 C    -4.986511214304E-01  3.378193405635E-01  3.757060190513E-01
     27 F   6 C    -4.986511214304E-01  1.621806594365E-01 -1.242939809478E-01
     28 F   6 C     4.986511214304E-01 -3.378193405635E-01 -3.757060190531E-01
     29 T   6 C    -4.075187560077E-01 -1.703783059982E-01  4.777839197741E-02
     30 F   6 C     4.075187560077E-01  3.296216940018E-01  4.522216080217E-01
     31 F   6 C     4.075187560077E-01  1.703783059982E-01 -4.777839197741E-02
     32 F   6 C    -4.075187560077E-01 -3.296216940018E-01 -4.522216080235E-01
     33 T   6 C    -4.802707310797E-01 -2.690255880628E-01 -4.506978445534E-02
     34 F   6 C     4.802707310797E-01  2.309744119372E-01 -4.549302155455E-01
     35 F   6 C     4.802707310797E-01  2.690255880628E-01  4.506978445534E-02
     36 F   6 C    -4.802707310797E-01 -2.309744119372E-01  4.549302155438E-01
     37 T   6 C     1.039292387641E-01  4.789373090383E-01 -2.228463159104E-01
     38 F   6 C    -1.039292387641E-01 -2.106269096167E-02 -2.771536840905E-01
     39 F   6 C    -1.039292387641E-01 -4.789373090383E-01  2.228463159104E-01
     40 F   6 C     1.039292387641E-01  2.106269096167E-02  2.771536840887E-01
     41 T   6 C     8.431954453407E-02  3.900846476235E-01 -3.278251222811E-01
     42 F   6 C    -8.431954453406E-02 -1.099153523765E-01 -1.721748777198E-01
     43 F   6 C    -8.431954453407E-02 -3.900846476235E-01  3.278251222811E-01
     44 F   6 C     8.431954453409E-02  1.099153523765E-01  1.721748777180E-01
     45 T   1 H     1.369988800749E-01 -4.297486070188E-01  4.707505290577E-03
     46 F   1 H    -1.369988800749E-01  7.025139298116E-02  4.952924947085E-01
     47 F   1 H    -1.369988800749E-01  4.297486070188E-01 -4.707505290577E-03
     48 F   1 H     1.369988800749E-01 -7.025139298116E-02 -4.952924947103E-01
     49 T   1 H     2.613529856661E-01 -2.549191789496E-01  1.664253949943E-01
     50 F   1 H    -2.613529856661E-01  2.450808210504E-01  3.335746050048E-01
     51 F   1 H    -2.613529856661E-01  2.549191789496E-01 -1.664253949943E-01
     52 F   1 H     2.613529856661E-01 -2.450808210504E-01 -3.335746050066E-01
     53 T   1 H    -2.794469460466E-01 -9.816308391377E-02  5.893246953921E-02
     54 F   1 H     2.794469460466E-01  4.018369160862E-01  4.410675304599E-01
     55 F   1 H     2.794469460466E-01  9.816308391377E-02 -5.893246953921E-02
     56 F   1 H    -2.794469460466E-01 -4.018369160862E-01 -4.410675304617E-01
     57 T   1 H    -4.053247227436E-01 -2.734850697560E-01 -1.036673448961E-01
     58 F   1 H     4.053247227436E-01  2.265149302440E-01 -3.963326551048E-01
     59 F   1 H     4.053247227436E-01  2.734850697560E-01  1.036673448961E-01
     60 F   1 H    -4.053247227435E-01 -2.265149302440E-01  3.963326551030E-01
     61 T   1 H    -3.000786770089E-01 -2.450808824756E-02  2.350476177773E-01
     62 F   1 H     3.000786770089E-01  4.754919117524E-01  2.649523822218E-01
     63 F   1 H     3.000786770089E-01  2.450808824756E-02 -2.350476177773E-01
     64 F   1 H    -3.000786770088E-01 -4.754919117524E-01 -2.649523822236E-01
     65 T   1 H     3.979076854937E-01 -4.724380447913E-01 -1.931887691043E-01
     66 F   1 H    -3.979076854937E-01  2.756195520867E-02 -3.068112308965E-01
     67 F   1 H    -3.979076854937E-01  4.724380447913E-01  1.931887691043E-01
     68 F   1 H     3.979076854938E-01 -2.756195520867E-02  3.068112308948E-01
     69 T   1 H    -6.392746478617E-02  4.134939502521E-01 -4.038122022878E-01
     70 F   1 H     6.392746478618E-02 -8.650604974786E-02 -9.618779771311E-02
     71 F   1 H     6.392746478617E-02 -4.134939502521E-01  4.038122022878E-01
     72 F   1 H    -6.392746478616E-02  8.650604974786E-02  9.618779771134E-02
     73 T   1 H     2.115029022256E-01  4.087741631211E-01 -3.522308600705E-01
     74 F   1 H    -2.115029022256E-01 -9.122583687889E-02 -1.477691399304E-01
     75 F   1 H    -2.115029022256E-01 -4.087741631211E-01  3.522308600705E-01
     76 F   1 H     2.115029022257E-01  9.122583687889E-02  1.477691399287E-01
     77 T   1 H     8.130324677375E-02  2.737992363170E-01 -3.089517997854E-01
     78 F   1 H    -8.130324677374E-02 -2.262007636830E-01 -1.910482002155E-01
     79 F   1 H    -8.130324677375E-02 -2.737992363170E-01  3.089517997854E-01
     80 F   1 H     8.130324677376E-02  2.262007636830E-01  1.910482002137E-01

 T = ATOM BELONGING TO THE ASYMMETRIC UNIT

 ****    4 SYMMOPS - TRANSLATORS IN FRACTIONAL UNITS
 **** MATRICES AND TRANSLATORS IN THE CRYSTALLOGRAPHIC REFERENCE FRAME
   V INV                    ROTATION MATRICES                   TRANSLATORS
   1   1  1.00  0.00  0.00  0.00  1.00  0.00  0.00  0.00  1.00  0.00  0.00  0.00
   2   2 -1.00 -0.00 -0.00 -0.00  1.00 -0.00  0.00 -0.00 -1.00  0.00  0.50  0.50
   3   3 -1.00 -0.00 -0.00 -0.00 -1.00  0.00  0.00  0.00 -1.00  0.00  0.00  0.00
   4   4  1.00  0.00  0.00  0.00 -1.00  0.00 -0.00  0.00  1.00  0.00  0.50  0.50

 DIRECT LATTICE VECTORS CARTESIAN COMPONENTS (ANGSTROM)
          X                    Y                    Z
   0.710615857782E+01   0.432292843469E-15   0.240532708028E-01
   0.155517989259E-17   0.911766566506E+01   0.190378250532E-17
  -0.554527391957E+01   0.763967157757E-15   0.112734490553E+02


 CARTESIAN COORDINATES - PRIMITIVE CELL
 *******************************************************************************
 *      ATOM          X(ANGSTROM)         Y(ANGSTROM)         Z(ANGSTROM)
 *******************************************************************************
    1     8 O     2.788082575882E+00 -5.884507868900E-01  2.422936204438E+00
    2     8 O     1.545439042158E+00  3.970382045640E+00  3.237841594005E+00
    3     8 O    -2.788082575882E+00  5.884507868900E-01 -2.422936204438E+00
    4     8 O    -1.545439042148E+00 -3.970382045640E+00 -3.237841594025E+00
    5     8 O     7.821048208610E-01  4.483818159541E+00 -2.216893831399E+00
    6     8 O     1.990532138929E+00 -7.501467298900E-02 -3.419830696261E+00
    7     8 O    -7.821048208610E-01 -4.483818159541E+00  2.216893831399E+00
    8     8 O    -1.990532138919E+00  7.501467298900E-02  3.419830696241E+00
    9     7 N     2.959260417192E+00 -4.179255053287E+00 -1.808532892374E+00
   10     7 N    -1.866234574020E-01  3.795777792430E-01 -3.828191635286E+00
   11     7 N    -2.959260417192E+00  4.179255053287E+00  1.808532892374E+00
   12     7 N     1.866234574120E-01 -3.795777792430E-01  3.828191635266E+00
   13     6 C     2.864797576546E+00 -3.305208494976E+00 -7.125527404950E-01
   14     6 C    -9.216061675600E-02  1.253624337554E+00 -4.924171787165E+00
   15     6 C    -2.864797576546E+00  3.305208494976E+00  7.125527404950E-01
   16     6 C     9.216061676600E-02 -1.253624337554E+00  4.924171787145E+00
   17     6 C     1.790065189864E+00 -3.256770902699E+00  1.677966624800E-01
   18     6 C     9.825717699260E-01  1.302061929831E+00 -5.804521190140E+00
   19     6 C    -1.790065189864E+00  3.256770902699E+00 -1.677966624800E-01
   20     6 C    -9.825717699160E-01 -1.302061929831E+00  5.804521190120E+00
   21     6 C     1.785343361582E+00 -2.346294053393E+00  1.213794318154E+00
   22     6 C     2.548178256458E+00  2.212538779137E+00  4.446983480289E+00
   23     6 C    -1.785343361582E+00  2.346294053393E+00 -1.213794318154E+00
   24     6 C    -2.548178256448E+00 -2.212538779137E+00 -4.446983480309E+00
   25     6 C     2.854249772983E+00 -1.478709030081E+00  1.413216052555E+00
   26     6 C     1.479271845057E+00  3.080123802449E+00  4.247561745888E+00
   27     6 C    -2.854249772983E+00  1.478709030081E+00 -1.413216052555E+00
   28     6 C    -1.479271845047E+00 -3.080123802449E+00 -4.247561745908E+00
   29     6 C    -3.160837174578E+00 -1.553452430671E+00  5.288251089060E-01
   30     6 C     3.882002147980E-01  3.005380401859E+00  5.107899418734E+00
   31     6 C     3.160837174578E+00  1.553452430671E+00 -5.288251089060E-01
   32     6 C    -3.882002147880E-01 -3.005380401859E+00 -5.107899418754E+00
   33     6 C    -3.162955675037E+00 -2.452885367303E+00 -5.196440009440E-01
   34     6 C    -1.170565942993E+00  2.105947465227E+00 -5.141133797519E+00
   35     6 C     3.162955675037E+00  2.452885367303E+00  5.196440009440E-01
   36     6 C     1.170565943003E+00 -2.105947465227E+00  5.141133797499E+00
   37     6 C     1.974281515220E+00  4.366790258335E+00 -2.509746751453E+00
   38     6 C     7.983554445700E-01 -1.920425741950E-01 -3.126977776207E+00
   39     6 C    -1.974281515220E+00 -4.366790258335E+00  2.509746751453E+00
   40     6 C    -7.983554445600E-01  1.920425741950E-01  3.126977776187E+00
   41     6 C     2.417068155434E+00  3.556661398104E+00 -3.693691654245E+00
   42     6 C     3.555688043560E-01 -1.002171434426E+00 -1.943032873415E+00
   43     6 C    -2.417068155434E+00 -3.556661398104E+00  3.693691654245E+00
   44     6 C    -3.555688043460E-01  1.002171434426E+00  1.943032873395E+00
   45     1 H     9.474313604820E-01 -3.918304118823E+00  5.636509223300E-02
   46     1 H     1.825205599308E+00  6.405287137070E-01 -5.693089619893E+00
   47     1 H    -9.474313604820E-01  3.918304118823E+00 -5.636509223300E-02
   48     1 H    -1.825205599298E+00 -6.405287137070E-01  5.693089619873E+00
   49     1 H     9.343413585140E-01 -2.324267845274E+00  1.882474606116E+00
   50     1 H     3.399180259526E+00  2.234564987256E+00  3.778303192327E+00
   51     1 H    -9.343413585140E-01  2.324267845274E+00 -1.882474606116E+00
   52     1 H    -3.399180259516E+00 -2.234564987256E+00 -3.778303192347E+00
   53     1 H    -2.312590999046E+00 -8.950181797770E-01  6.576505799850E-01
   54     1 H    -4.600459607340E-01  3.663814652753E+00  4.979073947655E+00
   55     1 H     2.312590999046E+00  8.950181797770E-01 -6.576505799850E-01
   56     1 H     4.600459607440E-01 -3.663814652753E+00 -4.979073947675E+00
   57     1 H    -2.305437931363E+00 -2.493545430421E+00 -1.178437916704E+00
   58     1 H    -2.028083686667E+00  2.065287402109E+00 -4.482339881759E+00
   59     1 H     2.305437931363E+00  2.493545430421E+00  1.178437916704E+00
   60     1 H     2.028083686677E+00 -2.065287402109E+00  4.482339881739E+00
   61     1 H    -3.435810089365E+00 -2.234565547310E-01  2.642579470902E+00
   62     1 H     6.631731295850E-01  4.335376277799E+00  2.994145056738E+00
   63     1 H     3.435810089365E+00  2.234565547310E-01 -2.642579470902E+00
   64     1 H    -6.631731295750E-01 -4.335376277799E+00 -2.994145056758E+00
   65     1 H    -3.207278822500E+00 -4.307532139862E+00 -2.192386036043E+00
   66     1 H    -1.126242795530E+00  2.513006926680E-01 -3.468391762420E+00
   67     1 H     3.207278822500E+00  4.307532139862E+00  2.192386036043E+00
   68     1 H     1.126242795540E+00 -2.513006926680E-01  3.468391762400E+00
   69     1 H     1.784970571502E+00  3.770099592924E+00 -4.553893955022E+00
   70     1 H     9.876663882880E-01 -7.887332396060E-01 -1.082830572638E+00
   71     1 H    -1.784970571502E+00 -3.770099592924E+00  4.553893955022E+00
   72     1 H    -9.876663882780E-01  7.887332396060E-01  1.082830572618E+00
   73     1 H     3.456189764901E+00  3.727066151853E+00 -3.965769320126E+00
   74     1 H    -6.835528051110E-01 -8.317666806770E-01 -1.670955207534E+00
   75     1 H    -3.456189764901E+00 -3.727066151853E+00  3.965769320126E+00
   76     1 H     6.835528051210E-01  8.317666806770E-01  1.670955207514E+00
   77     1 H     2.290976122220E+00  2.496409896087E+00 -3.480996766412E+00
   78     1 H     4.816608375700E-01 -2.062422936443E+00 -2.155727761248E+00
   79     1 H    -2.290976122220E+00 -2.496409896087E+00  3.480996766412E+00
   80     1 H    -4.816608375600E-01  2.062422936443E+00  2.155727761228E+00

 *******************************************************************************
 STARTING BASIS SET HANDLING 
 *******************************************************************************

 Loading internal basis set: DEF2-MSVP           

 Please cite in your publication:
 Fully Optimized Contracted Gaussian Basis Sets for Atoms Li to Kr. A. Schäfer, H. Horn and R. Ahlrichs; J. Chem. Phys. 97, 2571 (1992).                                                                                                                         
 S. Grimme, J. G. Brandenburg, C. Bannwarth, and A. Hansen, J. Chem. Phys., 143, 054107 (2015).                                                                                                                                                                  

 *******************************************************************************
 LOCAL ATOMIC FUNCTIONS BASIS SET
 *******************************************************************************
   ATOM   X(AU)   Y(AU)   Z(AU)  N. TYPE  EXPONENT  S COEF   P COEF   D/F/G COEF
 *******************************************************************************
   1 O    5.269  -1.112   4.579
                                  1 S  
                                         6.773E+03 1.727E-03 0.000E+00 0.000E+00
                                         1.017E+03 1.325E-02 0.000E+00 0.000E+00
                                         2.313E+02 6.603E-02 0.000E+00 0.000E+00
                                         6.501E+01 2.353E-01 0.000E+00 0.000E+00
                                         2.050E+01 5.498E-01 0.000E+00 0.000E+00
                                  2 S  
                                         6.716E+00 1.000E+00 0.000E+00 0.000E+00
                                  3 S  
                                         1.147E+00 1.000E+00 0.000E+00 0.000E+00
                                  4 S  
                                         3.342E-01 1.000E+00 0.000E+00 0.000E+00
                           5-     7 P  
                                         1.769E+01 0.000E+00 4.359E-02 0.000E+00
                                         3.854E+00 0.000E+00 2.318E-01 0.000E+00
                                         1.047E+00 0.000E+00 5.146E-01 0.000E+00
                           8-    10 P  
                                         2.759E-01 0.000E+00 1.000E+00 0.000E+00
                          11-    15 D  
                                         8.000E-01 0.000E+00 0.000E+00 1.000E+00
   2 O    2.920   7.503   6.119
   3 O   -5.269   1.112  -4.579
   4 O   -2.920  -7.503  -6.119
   5 O    1.478   8.473  -4.189
   6 O    3.762  -0.142  -6.463
   7 O   -1.478  -8.473   4.189
   8 O   -3.762   0.142   6.463
   9 N    5.592  -7.898  -3.418
                                121 S  
                                         5.072E+03 1.707E-03 0.000E+00 0.000E+00
                                         7.614E+02 1.309E-02 0.000E+00 0.000E+00
                                         1.732E+02 6.510E-02 0.000E+00 0.000E+00
                                         4.867E+01 2.305E-01 0.000E+00 0.000E+00
                                         1.533E+01 5.330E-01 0.000E+00 0.000E+00
                                122 S  
                                         5.019E+00 1.000E+00 0.000E+00 0.000E+00
                                123 S  
                                         8.355E-01 1.000E+00 0.000E+00 0.000E+00
                                124 S  
                                         2.463E-01 1.000E+00 0.000E+00 0.000E+00
                         125-   127 P  
                                         1.355E+01 0.000E+00 4.063E-02 0.000E+00
                                         2.918E+00 0.000E+00 2.209E-01 0.000E+00
                                         7.983E-01 0.000E+00 5.186E-01 0.000E+00
                         128-   130 P  
                                         2.190E-01 0.000E+00 1.000E+00 0.000E+00
                         131-   135 D  
                                         8.000E-01 0.000E+00 0.000E+00 1.000E+00
  10 N   -0.353   0.717  -7.234
  11 N   -5.592   7.898   3.418
  12 N    0.353  -0.717   7.234
  13 C    5.414  -6.246  -1.347
                                181 S  
                                         3.624E+03 1.634E-03 0.000E+00 0.000E+00
                                         5.440E+02 1.252E-02 0.000E+00 0.000E+00
                                         1.237E+02 6.211E-02 0.000E+00 0.000E+00
                                         3.476E+01 2.182E-01 0.000E+00 0.000E+00
                                         1.093E+01 4.980E-01 0.000E+00 0.000E+00
                                182 S  
                                         3.574E+00 1.000E+00 0.000E+00 0.000E+00
                                183 S  
                                         5.748E-01 1.000E+00 0.000E+00 0.000E+00
                                184 S  
                                         1.730E-01 1.000E+00 0.000E+00 0.000E+00
                         185-   187 P  
                                         9.443E+00 0.000E+00 3.790E-02 0.000E+00
                                         2.002E+00 0.000E+00 2.082E-01 0.000E+00
                                         5.463E-01 0.000E+00 5.047E-01 0.000E+00
                         188-   190 P  
                                         1.520E-01 0.000E+00 1.000E+00 0.000E+00
                         191-   195 D  
                                         8.000E-01 0.000E+00 0.000E+00 1.000E+00
  14 C   -0.174   2.369  -9.305
  15 C   -5.414   6.246   1.347
  16 C    0.174  -2.369   9.305
  17 C    3.383  -6.154   0.317
  18 C    1.857   2.461 -10.969
  19 C   -3.383   6.154  -0.317
  20 C   -1.857  -2.461  10.969
  21 C    3.374  -4.434   2.294
  22 C    4.815   4.181   8.404
  23 C   -3.374   4.434  -2.294
  24 C   -4.815  -4.181  -8.404
  25 C    5.394  -2.794   2.671
  26 C    2.795   5.821   8.027
  27 C   -5.394   2.794  -2.671
  28 C   -2.795  -5.821  -8.027
  29 C   -5.973  -2.936   0.999
  30 C    0.734   5.679   9.653
  31 C    5.973   2.936  -0.999
  32 C   -0.734  -5.679  -9.653
  33 C   -5.977  -4.635  -0.982
  34 C   -2.212   3.980  -9.715
  35 C    5.977   4.635   0.982
  36 C    2.212  -3.980   9.715
  37 C    3.731   8.252  -4.743
  38 C    1.509  -0.363  -5.909
  39 C   -3.731  -8.252   4.743
  40 C   -1.509   0.363   5.909
  41 C    4.568   6.721  -6.980
  42 C    0.672  -1.894  -3.672
  43 C   -4.568  -6.721   6.980
  44 C   -0.672   1.894   3.672
  45 H    1.790  -7.405   0.107
                                661 S  
                                         1.874E+01 1.968E-02 0.000E+00 0.000E+00
                                         2.826E+00 1.380E-01 0.000E+00 0.000E+00
                                         6.401E-01 4.783E-01 0.000E+00 0.000E+00
                                662 S  
                                         1.756E-01 1.000E+00 0.000E+00 0.000E+00
  46 H    3.449   1.210 -10.758
  47 H   -1.790   7.405  -0.107
  48 H   -3.449  -1.210  10.758
  49 H    1.766  -4.392   3.557
  50 H    6.424   4.223   7.140
  51 H   -1.766   4.392  -3.557
  52 H   -6.424  -4.223  -7.140
  53 H   -4.370  -1.691   1.243
  54 H   -0.869   6.924   9.409
  55 H    4.370   1.691  -1.243
  56 H    0.869  -6.924  -9.409
  57 H   -4.357  -4.712  -2.227
  58 H   -3.833   3.903  -8.470
  59 H    4.357   4.712   2.227
  60 H    3.833  -3.903   8.470
  61 H   -6.493  -0.422   4.994
  62 H    1.253   8.193   5.658
  63 H    6.493   0.422  -4.994
  64 H   -1.253  -8.193  -5.658
  65 H   -6.061  -8.140  -4.143
  66 H   -2.128   0.475  -6.554
  67 H    6.061   8.140   4.143
  68 H    2.128  -0.475   6.554
  69 H    3.373   7.124  -8.606
  70 H    1.866  -1.490  -2.046
  71 H   -3.373  -7.124   8.606
  72 H   -1.866   1.490   2.046
  73 H    6.531   7.043  -7.494
  74 H   -1.292  -1.572  -3.158
  75 H   -6.531  -7.043   7.494
  76 H    1.292   1.572   3.158
  77 H    4.329   4.718  -6.578
  78 H    0.910  -3.897  -4.074
  79 H   -4.329  -4.718   6.578
  80 H   -0.910   3.897   4.074

 *******************************************************************************
 FINISHED BASIS SET HANDLING 
 *******************************************************************************

 INFORMATION **** SET_MPP **** PCRYSTAL CALCULATION
 INFORMATION **** READM2 **** NEW DEFAULT: FOCK/KS MATRIX MIXING SET TO 30 %
 INFORMATION **** READM2 **** NEW DEFAULT: FULL DIRECT SCF MODE
 INFORMATION **** READM2 **** NEW DEFAULT: COULOMB BIPOLAR BUFFER SET TO 32 Mb
 INFORMATION **** READM2 **** NEW DEFAULT: EXCHANGE BIPOLAR BUFFER SET TO 32 Mb

 *******************************************************************************
 NEW DEFAULT: DFT INTEGRATION GRID INCREASED TO XLGRID
 NEW DEFAULT: DIIS ACCELERATOR ACTIVE
 USE KEYWORD NODIIS TO TURN IT OFF
 *******************************************************************************

 INFORMATION **** RDDFTP **** PBEh-3c calculation
 INFORMATION **** RDDFTP **** PBEh hybrid functional combined with D3 and gCP

PLEASE CITE:
(1) PBEh-3c Reference
 S. Grimme, J. G. Brandenburg, C. Bannwarth, and A. Hansen, 
 J. Chem. Phys. 143, 054107 (2015)
(2) DFT-D3 Reference
 S. Grimme, J. Antony, S. Ehrlich, and H. Krieg, J. Chem. Phys. 132, 154104 (2010)
(3) gCP Reference
 H. Kruse and S. Grimme J. Chem. Phys, 136, 154101 (2012)
 J. G. Brandenburg, M. Alessio, B. Civalleri, M. F. Peintinger
 T. Bredow, and S. Grimme, J. Phys. Chem. A, 117, 9282 (2013) 

 WARNING **** RDDFTP **** PBEh-3c has to be combined with def2-mSVP basis set
 WARNING **** RDDFTP **** Note: Harmonic frequencies are scaled by 0.95
 WARNING **** RDDFTP **** as recommended in original publication
 INFORMATION **** TOLDEE **** SCF TOL ON TOTAL ENERGY SET TO           9
 INFORMATION **** TOLINTEG **** COULOMB AND EXCHANGE SERIES TOLERANCES MODIFIED
 INFORMATION **** MAXCYCLE **** MAX NUMBER OF SCF CYCLES SET TO          30
 WARNING **** READM2 **** PROBABLE LOSS IN FREQCALC ACCURACY; SCF TOL LT          10
 *******************************************************************************
 N. OF ATOMS PER CELL        80  COULOMB OVERLAP TOL         (T1) 10**   -8
 NUMBER OF SHELLS           380  COULOMB PENETRATION TOL     (T2) 10**   -8
 NUMBER OF AO               732  EXCHANGE OVERLAP TOL        (T3) 10**   -8
 N. OF ELECTRONS PER CELL   320  EXCHANGE PSEUDO OVP (F(G))  (T4) 10**   -8
 CORE ELECTRONS PER CELL     88  EXCHANGE PSEUDO OVP (P(G))  (T5) 10**  -24
 N. OF SYMMETRY OPERATORS     4  POLE ORDER IN MONO ZONE                  4
 *******************************************************************************
 TYPE OF CALCULATION :  RESTRICTED CLOSED SHELL
 KOHN-SHAM HAMILTONIAN

 (EXCHANGE)[CORRELATION] FUNCTIONAL:(PBEh-3c)[PBEh-3c]


 HYBRID EXCHANGE - PERCENTAGE OF FOCK EXCHANGE    42.0000

 CAPPA:IS1  4;IS2  4;IS3  2; K PTS MONK NET  18; SYMMOPS:K SPACE   4;G SPACE   4

 *******************************************************************************
 MAX NUMBER OF SCF CYCLES      30  CONVERGENCE ON DELTAP        10**-19
 WEIGHT OF F(I) IN F(I+1)      50% CONVERGENCE ON ENERGY        10**- 9
 SHRINK. FACT.(MONKH.)    4  4  2  NUMBER OF K POINTS IN THE IBZ     18
 SHRINKING FACTOR(GILAT NET)    4  NUMBER OF K POINTS(GILAT NET)     18
 *******************************************************************************
 *** K POINTS COORDINATES (OBLIQUE COORDINATES IN UNITS OF IS =  4)
   1-R(  0  0  0)   2-C(  1  0  0)   3-R(  2  0  0)   4-C(  0  1  0)
   5-C(  1  1  0)   6-C(  2  1  0)   7-R(  0  2  0)   8-C(  1  2  0)
   9-R(  2  2  0)  10-R(  0  0  1)  11-C(  1  0  1)  12-R(  2  0  1)
  13-C(  0  1  1)  14-C(  1  1  1)  15-C(  2  1  1)  16-R(  0  2  1)
  17-C(  1  2  1)  18-R(  2  2  1)

 DIRECT LATTICE VECTORS COMPON. (A.U.)     RECIP. LATTICE VECTORS COMPON. (A.U.) 
        X            Y            Z              X            Y            Z
   13.4286936    0.0000000    0.0454541      0.4671148   -0.0000000    0.2297681
    0.0000000   17.2298911    0.0000000     -0.0000000    0.3646677   -0.0000000
  -10.4790490    0.0000000   21.3037313     -0.0009966   -0.0000000    0.2944433

 DISK SPACE FOR EIGENVECTORS (FTN 10)    15003072 REALS

 SYMMETRY ADAPTION OF THE BLOCH FUNCTIONS ENABLED
 TTTTTTTTTTTTTTTTTTTTTTTTTTTTTT gordsh1     TELAPSE        4.28 TCPU        2.51

 MATRIX SIZE: P(G) 2337732, F(G)  217862, P(G) IRR  296573, F(G) IRR   55260
 MAX G-VECTOR INDEX FOR 1- AND 2-ELECTRON INTEGRALS  95

 TTTTTTTTTTTTTTTTTTTTTTTTTTTTTT INPUT       TELAPSE        4.37 TCPU        2.60

 NEIGHBORS OF THE NON-EQUIVALENT ATOMS

 N = NUMBER OF NEIGHBORS AT DISTANCE R
    ATOM  N     R/ANG      R/AU   NEIGHBORS (ATOM LABELS AND CELL INDICES)
   1 O    1     0.9854     1.8621   61 H    1 0 0
   1 O    1     1.3478     2.5469   25 C    0 0 0
   1 O    1     1.9921     3.7645   68 H    0 0 0
   1 O    1     2.3574     4.4549   21 C    0 0 0
   1 O    1     2.4016     4.5383   29 C    1 0 0
   1 O    1     2.5964     4.9066   49 H    0 0 0

   5 O    1     1.2332     2.3304   37 C    0 0 0
   5 O    1     1.6679     3.1520   64 H    0 1 0
   5 O    1     2.2613     4.2732    9 N    0 1 0
   5 O    1     2.3889     4.5144   45 H    0 1 0
   5 O    1     2.3903     4.5171   41 C    0 0 0
   5 O    1     2.5896     4.8937   78 H    0 1 0

   9 N    1     1.0143     1.9167   65 H    1 0 0
   9 N    1     1.3374     2.5273   37 C    0-1 0
   9 N    1     1.4050     2.6551   13 C    0 0 0
   9 N    1     2.2613     4.2732    5 O    0-1 0
   9 N    1     2.3817     4.5007   33 C    1 0 0
   9 N    1     2.3994     4.5342   41 C    0-1 0

  13 C    1     1.3901     2.6269   17 C    0 0 0
  13 C    1     1.3916     2.6297   33 C    1 0 0
  13 C    1     1.4050     2.6551    9 N    0 0 0
  13 C    1     2.0477     3.8697   65 H    1 0 0
  13 C    1     2.1452     4.0538   57 H    1 0 0
  13 C    1     2.1549     4.0721   45 H    0 0 0

  17 C    1     1.0771     2.0354   45 H    0 0 0
  17 C    1     1.3868     2.6206   21 C    0 0 0
  17 C    1     1.3901     2.6269   13 C    0 0 0
  17 C    1     2.1312     4.0274   49 H    0 0 0
  17 C    1     2.3921     4.5205   33 C    1 0 0
  17 C    1     2.4177     4.5687   25 C    0 0 0

  21 C    1     1.0825     2.0456   49 H    0 0 0
  21 C    1     1.3868     2.6206   17 C    0 0 0
  21 C    1     1.3911     2.6287   25 C    0 0 0
  21 C    1     2.1244     4.0145   45 H    0 0 0
  21 C    1     2.3574     4.4549    1 O    0 0 0
  21 C    1     2.3939     4.5239   29 C    1 0 0

  25 C    1     1.3478     2.5469    1 O    0 0 0
  25 C    1     1.3911     2.6287   21 C    0 0 0
  25 C    1     1.3915     2.6295   29 C    1 0 0
  25 C    1     1.9526     3.6899   61 H    1 0 0
  25 C    1     2.1497     4.0623   49 H    0 0 0
  25 C    1     2.1533     4.0692   53 H    1 0 0

  29 C    1     1.0815     2.0437   53 H    0 0 0
  29 C    1     1.3814     2.6105   33 C    0 0 0
  29 C    1     1.3915     2.6295   25 C   -1 0 0
  29 C    1     2.1284     4.0222   57 H    0 0 0
  29 C    1     2.3939     4.5239   21 C   -1 0 0
  29 C    1     2.4016     4.5383    1 O   -1 0 0

  33 C    1     1.0821     2.0449   57 H    0 0 0
  33 C    1     1.3814     2.6105   29 C    0 0 0
  33 C    1     1.3916     2.6297   13 C   -1 0 0
  33 C    1     2.1298     4.0248   53 H    0 0 0
  33 C    1     2.3817     4.5007    9 N   -1 0 0
  33 C    1     2.3921     4.5205   17 C   -1 0 0

  37 C    1     1.2332     2.3304    5 O    0 0 0
  37 C    1     1.3374     2.5273    9 N    0 1 0
  37 C    1     1.5014     2.8372   41 C    0 0 0
  37 C    1     2.0043     3.7876   65 H    1 1 0
  37 C    1     2.1312     4.0274   77 H    0 0 0
  37 C    1     2.1379     4.0400   69 H    0 0 0

  41 C    1     1.0876     2.0552   73 H    0 0 0
  41 C    1     1.0886     2.0572   69 H    0 0 0
  41 C    1     1.0887     2.0573   77 H    0 0 0
  41 C    1     1.5014     2.8372   37 C    0 0 0
  41 C    1     2.3903     4.5171    5 O    0 0 0
  41 C    1     2.3994     4.5342    9 N    0 1 0

  45 H    1     1.0771     2.0354   17 C    0 0 0
  45 H    1     2.1244     4.0145   21 C    0 0 0
  45 H    1     2.1549     4.0721   13 C    0 0 0
  45 H    1     2.2900     4.3276   47 H    0-1 0
  45 H    1     2.3889     4.5144    5 O    0-1 0
  45 H    1     2.4240     4.5807   49 H    0 0 0

  49 H    1     1.0825     2.0456   21 C    0 0 0
  49 H    1     2.1312     4.0274   17 C    0 0 0
  49 H    1     2.1497     4.0623   25 C    0 0 0
  49 H    1     2.4240     4.5807   45 H    0 0 0
  49 H    1     2.5964     4.9066    1 O    0 0 0
  49 H    1     2.6171     4.9456   68 H    0 0 0

  53 H    1     1.0815     2.0437   29 C    0 0 0
  53 H    1     2.1298     4.0248   33 C    0 0 0
  53 H    1     2.1533     4.0692   25 C   -1 0 0
  53 H    1     2.1843     4.1278   72 H    0 0 0
  53 H    1     2.3775     4.4928   61 H    0 0 0
  53 H    1     2.4345     4.6004   57 H    0 0 0

  57 H    1     1.0821     2.0449   33 C    0 0 0
  57 H    1     2.1284     4.0222   29 C    0 0 0
  57 H    1     2.1452     4.0538   13 C   -1 0 0
  57 H    1     2.2654     4.2810   65 H    0 0 0
  57 H    1     2.3737     4.4857   74 H    0 0 0
  57 H    1     2.4345     4.6004   53 H    0 0 0

  61 H    1     0.9854     1.8621    1 O   -1 0 0
  61 H    1     1.6679     3.1520    8 O    0 0 0
  61 H    1     1.9526     3.6899   25 C   -1 0 0
  61 H    1     2.3775     4.4928   53 H    0 0 0
  61 H    1     2.5125     4.7479   29 C    0 0 0
  61 H    1     2.6676     5.0410   68 H   -1 0 0

  65 H    1     1.0143     1.9167    9 N   -1 0 0
  65 H    1     1.9921     3.7645    4 O    0 0 0
  65 H    1     2.0043     3.7876   37 C   -1-1 0
  65 H    1     2.0477     3.8697   13 C   -1 0 0
  65 H    1     2.1447     4.0529   73 H   -1-1 0
  65 H    1     2.2654     4.2810   57 H    0 0 0

  69 H    1     1.0886     2.0572   41 C    0 0 0
  69 H    1     1.7405     3.2891   77 H    0 0 0
  69 H    1     1.7722     3.3490   73 H    0 0 0
  69 H    1     2.1379     4.0400   37 C    0 0 0
  69 H    1     2.1843     4.1278   56 H    0 1 0
  69 H    1     2.6413     4.9914    5 O    0 0 0

  73 H    1     1.0876     2.0552   41 C    0 0 0
  73 H    1     1.7627     3.3311   77 H    0 0 0
  73 H    1     1.7722     3.3490   69 H    0 0 0
  73 H    1     2.1447     4.0529   65 H    1 1 0
  73 H    1     2.1738     4.1078   37 C    0 0 0
  73 H    1     2.3737     4.4857   58 H    1 0 0

  77 H    1     1.0887     2.0573   41 C    0 0 0
  77 H    1     1.7405     3.2891   69 H    0 0 0
  77 H    1     1.7627     3.3311   73 H    0 0 0
  77 H    1     2.1312     4.0274   37 C    0 0 0
  77 H    1     2.5896     4.8937    6 O    0 0 0
  77 H    1     2.6795     5.0636   63 H    0 0 0


 SYMMETRY ALLOWED INTERNAL DEGREE(S) OF FREEDOM:  60
 TTTTTTTTTTTTTTTTTTTTTTTTTTTTTT SYMM        TELAPSE        4.41 TCPU        2.63
 TTTTTTTTTTTTTTTTTTTTTTTTTTTTTT INT_SCREEN  TELAPSE        4.79 TCPU        3.02

 *******************************************************************************
 *                                                                             *
 *                                                                             *
 *         FFFFF  RRRR   EEEE   QQQ   U   U  EEEE  N   N   CCC  Y   Y          *
 *         F      R   R  E     Q   Q  U   U  E     NN  N  C      Y Y           *
 *         FFF    RRRR   EEEE  Q   Q  U   U  EEEE  N N N  C       Y            *
 *         F      R   R  E     Q  QQ  U   U  E     N  NN  C       Y            *
 *         F      R   R  EEEE   QQ Q   UUU   EEEE  N   N   CCC    Y            *
 *                                                                             *
 *                                                                             *
 * CALCULATION OF PHONON FREQUENCIES AT THE GAMMA POINT.                       *
 *                                                                             *
 * SYMMETRY IS EXPLOITED TO BUILD THE TOTAL HESSIAN MATRIX.                    *
 * (F. PASCALE PHD THESIS TURIN-PARIS 2002)                                    *
 *                                                                             *
 *******************************************************************************


 * INTENSITIES COMPUTED VIA THE BERRY PHASE APPROACH                           *
 *                                                                             *
 * REFERENCES TO BE QUOTED WHEN USING THIS MODULE:                             *
 *                                                                             *
 * F. Pascale, C.M. Zicovich-Wilson, F. Lopez, B. Civalleri                    *
 * R. Orlando, R. Dovesi                                                       *
 * The calculation of the vibration frequencies of crystalline                 *
 * compounds and its implementation in the CRYSTAL code                        *
 * J. Comput. Chem. 25 (2004) 888-897                                          *
 *                                                                             *
 * C.M. Zicovich-Wilson, F. Pascale, C. Roetti, V.R. Saunders,                 *
 * R. Orlando, R. Dovesi                                                       *
 * The calculation of the vibration frequencies of alpha-quartz:               *
 * the effect of hamiltonian and basis set                                     *
 * J. Comput. Chem. 25 (2004) 1873-1881                                        *
 *******************************************************************************



 ATOMS ISOTOPIC MASS (AMU) FOR FREQUENCY CALCULATION 

    1 O      15.9949    2 O      15.9949    3 O      15.9949    4 O      15.9949
    5 O      15.9949    6 O      15.9949    7 O      15.9949    8 O      15.9949
    9 N      14.0031   10 N      14.0031   11 N      14.0031   12 N      14.0031
   13 C      12.0000   14 C      12.0000   15 C      12.0000   16 C      12.0000
   17 C      12.0000   18 C      12.0000   19 C      12.0000   20 C      12.0000
   21 C      12.0000   22 C      12.0000   23 C      12.0000   24 C      12.0000
   25 C      12.0000   26 C      12.0000   27 C      12.0000   28 C      12.0000
   29 C      12.0000   30 C      12.0000   31 C      12.0000   32 C      12.0000
   33 C      12.0000   34 C      12.0000   35 C      12.0000   36 C      12.0000
   37 C      12.0000   38 C      12.0000   39 C      12.0000   40 C      12.0000
   41 C      12.0000   42 C      12.0000   43 C      12.0000   44 C      12.0000
   45 H       1.0078   46 H       1.0078   47 H       1.0078   48 H       1.0078
   49 H       1.0078   50 H       1.0078   51 H       1.0078   52 H       1.0078
   53 H       1.0078   54 H       1.0078   55 H       1.0078   56 H       1.0078
   57 H       1.0078   58 H       1.0078   59 H       1.0078   60 H       1.0078
   61 H       1.0078   62 H       1.0078   63 H       1.0078   64 H       1.0078
   65 H       1.0078   66 H       1.0078   67 H       1.0078   68 H       1.0078
   69 H       1.0078   70 H       1.0078   71 H       1.0078   72 H       1.0078
   73 H       1.0078   74 H       1.0078   75 H       1.0078   76 H       1.0078
   77 H       1.0078   78 H       1.0078   79 H       1.0078   80 H       1.0078

 INFORMATION CONCERNING THE SCF+GRADIENT CALCULATIONS REQUIRED FOR
 GENERATING FREQUENCIES. IN PRINCIPLE 3N+1 SCF + GRADIENT
 CALCULATIONS  ARE REQUIRED;
 FOR EACH OF THEM THE REMAINING POINT SYMMETRY IS INDICATED.
 POINT SYMMETRY PERMITS TO GENERATE GRADIENTS FOR DISPLACEMENT B 
 STARTING FROM THE GRADIENT GENERATED BY DISPLACEMENT A.

   N   LABEL SYMBOL DISPLACEMENT     SYM. 

   1     EQUILIBRIUM GEOMETRY            4

   2      1   O            DX           1
   3      1   O            DY           1
   4      1   O            DZ           1
   5      5   O            DX           1
   6      5   O            DY           1
   7      5   O            DZ           1
   8      9   N            DX           1
   9      9   N            DY           1
  10      9   N            DZ           1
  11     13   C            DX           1
  12     13   C            DY           1
  13     13   C            DZ           1
  14     17   C            DX           1
  15     17   C            DY           1
  16     17   C            DZ           1
  17     21   C            DX           1
  18     21   C            DY           1
  19     21   C            DZ           1
  20     25   C            DX           1
  21     25   C            DY           1
  22     25   C            DZ           1
  23     29   C            DX           1
  24     29   C            DY           1
  25     29   C            DZ           1
  26     33   C            DX           1
  27     33   C            DY           1
  28     33   C            DZ           1
  29     37   C            DX           1
  30     37   C            DY           1
  31     37   C            DZ           1
  32     41   C            DX           1
  33     41   C            DY           1
  34     41   C            DZ           1
  35     45   H            DX           1
  36     45   H            DY           1
  37     45   H            DZ           1
  38     49   H            DX           1
  39     49   H            DY           1
  40     49   H            DZ           1
  41     53   H            DX           1
  42     53   H            DY           1
  43     53   H            DZ           1
  44     57   H            DX           1
  45     57   H            DY           1
  46     57   H            DZ           1
  47     61   H            DX           1
  48     61   H            DY           1
  49     61   H            DZ           1
  50     65   H            DX           1
  51     65   H            DY           1
  52     65   H            DZ           1
  53     69   H            DX           1
  54     69   H            DY           1
  55     69   H            DZ           1
  56     73   H            DX           1
  57     73   H            DY           1
  58     73   H            DZ           1
  59     77   H            DX           1
  60     77   H            DY           1
  61     77   H            DZ           1
 USE OF RESIDUAL SYMMETRY AFTER DISPLACEMENT

 NUMERICAL GRADIENT COMPUTED WITH A SINGLE DISPLACEMENT (+DX) FOR EACH
 CARTESIAN COORDINATE WITH RESPECT TO THE EQUILIBRIUM CONFIGURATION
 DX=  0.003 ANGSTROM
 NUMBER OF IRREDUCIBLE ATOMS                    20
 NUMBER OF SCF+GRADIENT CALCULATIONS            61

  ATOM  SYMOP  ORDER
    1      1      1
    5      1      1
    9      1      1
   13      1      1
   17      1      1
   21      1      1
   25      1      1
   29      1      1
   33      1      1
   37      1      1
   41      1      1
   45      1      1
   49      1      1
   53      1      1
   57      1      1
   61      1      1
   65      1      1
   69      1      1
   73      1      1
   77      1      1

 ATOM  : IRREDUCIBLE ATOM
 SYMOP : NUMBER OF SYMMETRY OPERATORS THAT DOESN'T MOVE THE IRREDUCIBLE ATOM
 ORDER : MAXIMUM ORDER AMONG THE OPERATORS OF THE IRREDUCIBLE ATOM

 *******************************************************************************


 GCALCO - MAX INDICES DIRECT LATTICE VECTOR    20    14    11
 NO.OF VECTORS CREATED 6999 STARS 1868 RMAX   201.98050 BOHR

 CAPPA:IS1  4;IS2  4;IS3  2; K PTS MONK NET  18; SYMMOPS:K SPACE   4;G SPACE   4

 TTTTTTTTTTTTTTTTTTTTTTTTTTTTTT gordsh1     TELAPSE        4.82 TCPU        3.05

 MATRIX SIZE: P(G) 2337732, F(G)  217862, P(G) IRR  296573, F(G) IRR   55260
 MAX G-VECTOR INDEX FOR 1- AND 2-ELECTRON INTEGRALS  95

 TTTTTTTTTTTTTTTTTTTTTTTTTTTTTT INPUT       TELAPSE        4.84 TCPU        3.06

 SYMMETRY ALLOWED INTERNAL DEGREE(S) OF FREEDOM:  60
 TTTTTTTTTTTTTTTTTTTTTTTTTTTTTT SYMM        TELAPSE        4.86 TCPU        3.09
 TTTTTTTTTTTTTTTTTTTTTTTTTTTTTT INT_SCREEN  TELAPSE        4.88 TCPU        3.10
 INFORMATION **** EXCBUF **** EXCH. BIPO BUFFER: WORDS USED =     3970053

 DFT PARAMETERS

     ATOM       ELECTRONS   NET CHARGE   R(ANGSTROM)
   1   8  O       8.0000      0.0000     0.74000000
   9   7  N       7.0000      0.0000     0.74000000
  13   6  C       6.0000      0.0000     0.77000000
  45   1  H       1.0000      0.0000     1.11000000

 SIZE OF GRID=     982250
 TTTTTTTTTTTTTTTTTTTTTTTTTTTTTT MAKE_GRID2  TELAPSE        8.30 TCPU        6.52
 BECKE WEIGHT FUNCTION
 RADSAFE =     2.00
 TOLERANCES - DENSITY:10**- 6; POTENTIAL:10**- 9; GRID WGT:10**-14

 RADIAL INTEGRATION  - INTERVALS (POINTS,UPPER LIMIT):            1( 99,  4.0*R)

 ANGULAR INTEGRATION - INTERVALS (ACCURACY LEVEL [N. POINTS] UPPER LIMIT):
  1(  6[ 146]   0.2)  2( 11[ 302]   0.5)  3( 14[ 590]   0.9)  4( 18[1454]   3.5)
  5( 14[ 590]9999.0)
 TTTTTTTTTTTTTTTTTTTTTTTTTTTTTT INT_CALC    TELAPSE        8.34 TCPU        6.56

 *******************************************************************************
 F1 vol step-4 freq - PBEh-3c                                                    
 CRYSTAL - SCF - TYPE OF CALCULATION :  RESTRICTED CLOSED SHELL
 *******************************************************************************

 CAPPA:IS1  4;IS2  4;IS3  2; K PTS MONK NET  18; SYMMOPS:K SPACE   4;G SPACE   4

 TTTTTTTTTTTTTTTTTTTTTTTTTTTTTT SDIK        TELAPSE        8.60 TCPU        6.82

 AAAAAAAAAAAAAAAAAAAAAAAAAAAAAAAAAAAAAAAAAAAAAAAAAAAAAAAAAAAAAAAAAAAAAAAAAAAAAAA
         ATOMIC WAVEFUNCTION(S)


 NUCLEAR CHARGE  8.0  SYMMETRY SPECIES            S    P
 N. ELECTRONS    8.0  NUMBER OF PRIMITIVE GTOS    8    4
                      NUMBER OF CONTRACTED GTOS   4    2
                      NUMBER OF CLOSED SHELLS     2    0
                      OPEN SHELL OCCUPATION       0    4

  ZNUC SCFIT  TOTAL HF ENERGY   KINETIC ENERGY   VIRIAL THEOREM ACCURACY
   8.0  12   -7.477373220E+01  7.477365593E+01 -2.000001020E+00  3.8E-06

 NUCLEAR CHARGE  7.0  SYMMETRY SPECIES            S    P
 N. ELECTRONS    7.0  NUMBER OF PRIMITIVE GTOS    8    4
                      NUMBER OF CONTRACTED GTOS   4    2
                      NUMBER OF CLOSED SHELLS     2    0
                      OPEN SHELL OCCUPATION       0    3

  ZNUC SCFIT  TOTAL HF ENERGY   KINETIC ENERGY   VIRIAL THEOREM ACCURACY
   7.0   9   -5.437948210E+01  5.437948297E+01 -1.999999984E+00  1.2E-06

 NUCLEAR CHARGE  6.0  SYMMETRY SPECIES            S    P
 N. ELECTRONS    6.0  NUMBER OF PRIMITIVE GTOS    8    4
                      NUMBER OF CONTRACTED GTOS   4    2
                      NUMBER OF CLOSED SHELLS     2    0
                      OPEN SHELL OCCUPATION       0    2

  ZNUC SCFIT  TOTAL HF ENERGY   KINETIC ENERGY   VIRIAL THEOREM ACCURACY
   6.0   9   -3.767634636E+01  3.767630973E+01 -2.000000972E+00  4.2E-06

 NUCLEAR CHARGE  1.0  SYMMETRY SPECIES            S
 N. ELECTRONS    1.0  NUMBER OF PRIMITIVE GTOS    4
                      NUMBER OF CONTRACTED GTOS   2
                      NUMBER OF CLOSED SHELLS     0
                      OPEN SHELL OCCUPATION       1

  ZNUC SCFIT  TOTAL HF ENERGY   KINETIC ENERGY   VIRIAL THEOREM ACCURACY
   1.0   1   -4.977266687E-01  5.190767460E-01 -1.958869132E+00  2.2E-17

 AAAAAAAAAAAAAAAAAAAAAAAAAAAAAAAAAAAAAAAAAAAAAAAAAAAAAAAAAAAAAAAAAAAAAAAAAAAAAAA

 TTTTTTTTTTTTTTTTTTTTTTTTTTTTTT MOQGAD      TELAPSE        9.14 TCPU        7.19
 TTTTTTTTTTTTTTTTTTTTTTTTTTTTTT SHELLXN     TELAPSE       11.46 TCPU        9.51
 TTTTTTTTTTTTTTTTTTTTTTTTTTTTTT MONMO3      TELAPSE       12.39 TCPU       10.44
 NUMERICALLY INTEGRATED DENSITY    319.9998285356
 TTTTTTTTTTTTTTTTTTTTTTTTTTTTTT NUMDFT      TELAPSE       12.78 TCPU       10.83
 CYC   0 ETOT(AU) -2.070870243531E+03 DETOT -2.07E+03 tst  0.00E+00 PX  1.00E+00
 TTTTTTTTTTTTTTTTTTTTTTTTTTTTTT DIIS        TELAPSE       12.82 TCPU       10.86
 TTTTTTTTTTTTTTTTTTTTTTTTTTTTTT FDIK        TELAPSE       13.39 TCPU       11.44
 INSULATING STATE
 TOP OF VALENCE BANDS -    BAND    160; K    1; EIG -2.7971735E-01 AU
 BOTTOM OF VIRTUAL BANDS - BAND    161; K    7; EIG -1.2692741E-01 AU
 INDIRECT ENERGY BAND GAP:   4.1576 eV
 BOTTOM OF VIRTUAL BANDS - BAND    161; K    1; EIG -1.2206558E-01 AU
 TTTTTTTTTTTTTTTTTTTTTTTTTTTTTT PDIG        TELAPSE       13.75 TCPU       11.79
 TTTTTTTTTTTTTTTTTTTTTTTTTTTTTT MOQGAD      TELAPSE       13.75 TCPU       11.80
 TTTTTTTTTTTTTTTTTTTTTTTTTTTTTT SHELLXN     TELAPSE       16.18 TCPU       14.22
 TTTTTTTTTTTTTTTTTTTTTTTTTTTTTT MONMO3      TELAPSE       17.13 TCPU       15.17
 NUMERICALLY INTEGRATED DENSITY    319.9998517545
 TTTTTTTTTTTTTTTTTTTTTTTTTTTTTT NUMDFT      TELAPSE       17.64 TCPU       15.68
 CYC   1 ETOT(AU) -2.057254971208E+03 DETOT  1.36E+01 tst  0.00E+00 PX  1.00E+00
 TTTTTTTTTTTTTTTTTTTTTTTTTTTTTT DIIS        TELAPSE       17.68 TCPU       15.72
 DIIS TEST: 0.17349E+01 AT SCF   CYCLE   1 - MIX   50 %
 TTTTTTTTTTTTTTTTTTTTTTTTTTTTTT FDIK        TELAPSE       18.25 TCPU       16.27
 INSULATING STATE
 TOP OF VALENCE BANDS -    BAND    160; K   10; EIG -2.4700878E-01 AU
 TOP OF VALENCE BANDS -    BAND    160; K    1; EIG -2.4724859E-01 AU
 BOTTOM OF VIRTUAL BANDS - BAND    161; K    9; EIG -4.8231820E-02 AU
 INDIRECT ENERGY BAND GAP:   5.4090 eV
 BOTTOM OF VIRTUAL BANDS - BAND    161; K    1; EIG -4.6824035E-02 AU
 TTTTTTTTTTTTTTTTTTTTTTTTTTTTTT PDIG        TELAPSE       18.61 TCPU       16.63
 TTTTTTTTTTTTTTTTTTTTTTTTTTTTTT MOQGAD      TELAPSE       18.61 TCPU       16.64
 TTTTTTTTTTTTTTTTTTTTTTTTTTTTTT SHELLXN     TELAPSE       21.08 TCPU       19.07
 TTTTTTTTTTTTTTTTTTTTTTTTTTTTTT MONMO3      TELAPSE       22.00 TCPU       19.98
 NUMERICALLY INTEGRATED DENSITY    319.9998456680
 TTTTTTTTTTTTTTTTTTTTTTTTTTTTTT NUMDFT      TELAPSE       22.35 TCPU       20.33
 CYC   2 ETOT(AU) -2.057713329806E+03 DETOT -4.58E-01 tst  9.76E-04 PX  1.26E-01
 TTTTTTTTTTTTTTTTTTTTTTTTTTTTTT DIIS        TELAPSE       22.38 TCPU       20.36
 DIIS TEST: 0.13900E+00 AT SCF   CYCLE   2 - DIIS ACTIVE - HISTORY:     2 CYCLES
 TTTTTTTTTTTTTTTTTTTTTTTTTTTTTT FDIK        TELAPSE       23.01 TCPU       20.97
 INSULATING STATE
 TOP OF VALENCE BANDS -    BAND    160; K   10; EIG -2.3763799E-01 AU
 TOP OF VALENCE BANDS -    BAND    160; K    1; EIG -2.3787585E-01 AU
 BOTTOM OF VIRTUAL BANDS - BAND    161; K   16; EIG -6.0292265E-03 AU
 INDIRECT ENERGY BAND GAP:   6.3024 eV
 BOTTOM OF VIRTUAL BANDS - BAND    161; K    1; EIG -1.9494974E-03 AU
 TTTTTTTTTTTTTTTTTTTTTTTTTTTTTT PDIG        TELAPSE       23.37 TCPU       21.33
 TTTTTTTTTTTTTTTTTTTTTTTTTTTTTT MOQGAD      TELAPSE       23.38 TCPU       21.34
 TTTTTTTTTTTTTTTTTTTTTTTTTTTTTT SHELLXN     TELAPSE       25.82 TCPU       23.77
 TTTTTTTTTTTTTTTTTTTTTTTTTTTTTT MONMO3      TELAPSE       26.77 TCPU       24.72
 NUMERICALLY INTEGRATED DENSITY    319.9998383686
 TTTTTTTTTTTTTTTTTTTTTTTTTTTTTT NUMDFT      TELAPSE       27.12 TCPU       25.07
 CYC   3 ETOT(AU) -2.057735411990E+03 DETOT -2.21E-02 tst  2.07E-04 PX  4.13E-02
 TTTTTTTTTTTTTTTTTTTTTTTTTTTTTT DIIS        TELAPSE       27.15 TCPU       25.11
 DIIS TEST: 0.77577E-01 AT SCF   CYCLE   3 - DIIS ACTIVE - HISTORY:     3 CYCLES
 TTTTTTTTTTTTTTTTTTTTTTTTTTTTTT FDIK        TELAPSE       27.73 TCPU       25.68
 INSULATING STATE
 TOP OF VALENCE BANDS -    BAND    160; K   10; EIG -2.4750298E-01 AU
 TOP OF VALENCE BANDS -    BAND    160; K    1; EIG -2.4782533E-01 AU
 BOTTOM OF VIRTUAL BANDS - BAND    161; K   16; EIG -1.2627702E-02 AU
 INDIRECT ENERGY BAND GAP:   6.3913 eV
 BOTTOM OF VIRTUAL BANDS - BAND    161; K    1; EIG -7.8180291E-03 AU
 TTTTTTTTTTTTTTTTTTTTTTTTTTTTTT PDIG        TELAPSE       28.08 TCPU       26.03
 TTTTTTTTTTTTTTTTTTTTTTTTTTTTTT MOQGAD      TELAPSE       28.08 TCPU       26.03
 TTTTTTTTTTTTTTTTTTTTTTTTTTTTTT SHELLXN     TELAPSE       30.51 TCPU       28.46
 TTTTTTTTTTTTTTTTTTTTTTTTTTTTTT MONMO3      TELAPSE       31.47 TCPU       29.41
 NUMERICALLY INTEGRATED DENSITY    319.9998417425
 TTTTTTTTTTTTTTTTTTTTTTTTTTTTTT NUMDFT      TELAPSE       31.73 TCPU       29.67
 CYC   4 ETOT(AU) -2.057752924908E+03 DETOT -1.75E-02 tst  1.15E-04 PX  3.20E-02
 TTTTTTTTTTTTTTTTTTTTTTTTTTTTTT DIIS        TELAPSE       31.77 TCPU       29.72
 DIIS TEST: 0.89071E-02 AT SCF   CYCLE   4 - DIIS ACTIVE - HISTORY:     4 CYCLES
 TTTTTTTTTTTTTTTTTTTTTTTTTTTTTT FDIK        TELAPSE       32.35 TCPU       30.27
 INSULATING STATE
 TOP OF VALENCE BANDS -    BAND    160; K   10; EIG -2.4511273E-01 AU
 TOP OF VALENCE BANDS -    BAND    160; K    1; EIG -2.4541810E-01 AU
 BOTTOM OF VIRTUAL BANDS - BAND    161; K   16; EIG -1.0476614E-02 AU
 INDIRECT ENERGY BAND GAP:   6.3848 eV
 BOTTOM OF VIRTUAL BANDS - BAND    161; K    1; EIG -5.9759113E-03 AU
 TTTTTTTTTTTTTTTTTTTTTTTTTTTTTT PDIG        TELAPSE       32.71 TCPU       30.63
 TTTTTTTTTTTTTTTTTTTTTTTTTTTTTT MOQGAD      TELAPSE       32.72 TCPU       30.63
 TTTTTTTTTTTTTTTTTTTTTTTTTTTTTT SHELLXN     TELAPSE       35.14 TCPU       33.06
 TTTTTTTTTTTTTTTTTTTTTTTTTTTTTT MONMO3      TELAPSE       36.10 TCPU       34.02
 NUMERICALLY INTEGRATED DENSITY    319.9998409775
 TTTTTTTTTTTTTTTTTTTTTTTTTTTTTT NUMDFT      TELAPSE       36.45 TCPU       34.37
 CYC   5 ETOT(AU) -2.057755038574E+03 DETOT -2.11E-03 tst  8.94E-06 PX  8.12E-03
 TTTTTTTTTTTTTTTTTTTTTTTTTTTTTT DIIS        TELAPSE       36.48 TCPU       34.40
 DIIS TEST: 0.77075E-03 AT SCF   CYCLE   5 - DIIS ACTIVE - HISTORY:     5 CYCLES
 TTTTTTTTTTTTTTTTTTTTTTTTTTTTTT FDIK        TELAPSE       37.06 TCPU       34.97
 INSULATING STATE
 TOP OF VALENCE BANDS -    BAND    160; K   10; EIG -2.4482296E-01 AU
 TOP OF VALENCE BANDS -    BAND    160; K    1; EIG -2.4513340E-01 AU
 BOTTOM OF VIRTUAL BANDS - BAND    161; K   16; EIG -1.0231767E-02 AU
 INDIRECT ENERGY BAND GAP:   6.3836 eV
 BOTTOM OF VIRTUAL BANDS - BAND    161; K    1; EIG -5.6246306E-03 AU
 TTTTTTTTTTTTTTTTTTTTTTTTTTTTTT PDIG        TELAPSE       37.41 TCPU       35.32
 TTTTTTTTTTTTTTTTTTTTTTTTTTTTTT MOQGAD      TELAPSE       37.41 TCPU       35.33
 TTTTTTTTTTTTTTTTTTTTTTTTTTTTTT SHELLXN     TELAPSE       39.85 TCPU       37.75
 TTTTTTTTTTTTTTTTTTTTTTTTTTTTTT MONMO3      TELAPSE       40.80 TCPU       38.71
 NUMERICALLY INTEGRATED DENSITY    319.9998408414
 TTTTTTTTTTTTTTTTTTTTTTTTTTTTTT NUMDFT      TELAPSE       41.15 TCPU       39.06
 CYC   6 ETOT(AU) -2.057755213544E+03 DETOT -1.75E-04 tst  1.34E-06 PX  1.61E-03
 TTTTTTTTTTTTTTTTTTTTTTTTTTTTTT DIIS        TELAPSE       41.19 TCPU       39.09
 DIIS TEST: 0.46901E-04 AT SCF   CYCLE   6 - DIIS ACTIVE - HISTORY:     6 CYCLES
 TTTTTTTTTTTTTTTTTTTTTTTTTTTTTT FDIK        TELAPSE       41.76 TCPU       39.67
 INSULATING STATE
 TOP OF VALENCE BANDS -    BAND    160; K   10; EIG -2.4475317E-01 AU
 TOP OF VALENCE BANDS -    BAND    160; K    1; EIG -2.4505784E-01 AU
 BOTTOM OF VIRTUAL BANDS - BAND    161; K   16; EIG -1.0208115E-02 AU
 INDIRECT ENERGY BAND GAP:   6.3823 eV
 BOTTOM OF VIRTUAL BANDS - BAND    161; K    1; EIG -5.6078737E-03 AU
 TTTTTTTTTTTTTTTTTTTTTTTTTTTTTT PDIG        TELAPSE       42.11 TCPU       40.02
 TTTTTTTTTTTTTTTTTTTTTTTTTTTTTT MOQGAD      TELAPSE       42.12 TCPU       40.02
 TTTTTTTTTTTTTTTTTTTTTTTTTTTTTT SHELLXN     TELAPSE       44.58 TCPU       42.46
 TTTTTTTTTTTTTTTTTTTTTTTTTTTTTT MONMO3      TELAPSE       45.51 TCPU       43.40
 NUMERICALLY INTEGRATED DENSITY    319.9998407968
 TTTTTTTTTTTTTTTTTTTTTTTTTTTTTT NUMDFT      TELAPSE       45.87 TCPU       43.75
 CYC   7 ETOT(AU) -2.057755223399E+03 DETOT -9.86E-06 tst  2.02E-07 PX  4.81E-04
 TTTTTTTTTTTTTTTTTTTTTTTTTTTTTT DIIS        TELAPSE       45.90 TCPU       43.79
 DIIS TEST: 0.78170E-05 AT SCF   CYCLE   7 - DIIS ACTIVE - HISTORY:     7 CYCLES
 TTTTTTTTTTTTTTTTTTTTTTTTTTTTTT FDIK        TELAPSE       46.48 TCPU       44.36
 INSULATING STATE
 TOP OF VALENCE BANDS -    BAND    160; K   10; EIG -2.4478775E-01 AU
 TOP OF VALENCE BANDS -    BAND    160; K    1; EIG -2.4509500E-01 AU
 BOTTOM OF VIRTUAL BANDS - BAND    161; K   16; EIG -1.0212508E-02 AU
 INDIRECT ENERGY BAND GAP:   6.3831 eV
 BOTTOM OF VIRTUAL BANDS - BAND    161; K    1; EIG -5.6163545E-03 AU
 TTTTTTTTTTTTTTTTTTTTTTTTTTTTTT PDIG        TELAPSE       46.84 TCPU       44.72
 TTTTTTTTTTTTTTTTTTTTTTTTTTTTTT MOQGAD      TELAPSE       46.85 TCPU       44.72
 TTTTTTTTTTTTTTTTTTTTTTTTTTTTTT SHELLXN     TELAPSE       49.28 TCPU       47.15
 TTTTTTTTTTTTTTTTTTTTTTTTTTTTTT MONMO3      TELAPSE       50.23 TCPU       48.11
 NUMERICALLY INTEGRATED DENSITY    319.9998407991
 TTTTTTTTTTTTTTTTTTTTTTTTTTTTTT NUMDFT      TELAPSE       50.49 TCPU       48.37
 CYC   8 ETOT(AU) -2.057755225739E+03 DETOT -2.34E-06 tst  1.59E-08 PX  1.83E-04
 TTTTTTTTTTTTTTTTTTTTTTTTTTTTTT DIIS        TELAPSE       53.63 TCPU       51.50
 DIIS TEST: 0.29784E-06 AT SCF   CYCLE   8 - DIIS ACTIVE - HISTORY:     8 CYCLES
 TTTTTTTTTTTTTTTTTTTTTTTTTTTTTT FDIK        TELAPSE       54.21 TCPU       52.07
 INSULATING STATE
 TOP OF VALENCE BANDS -    BAND    160; K   10; EIG -2.4479864E-01 AU
 TOP OF VALENCE BANDS -    BAND    160; K    1; EIG -2.4510518E-01 AU
 BOTTOM OF VIRTUAL BANDS - BAND    161; K   16; EIG -1.0218930E-02 AU
 INDIRECT ENERGY BAND GAP:   6.3832 eV
 BOTTOM OF VIRTUAL BANDS - BAND    161; K    1; EIG -5.6211612E-03 AU
 TTTTTTTTTTTTTTTTTTTTTTTTTTTTTT PDIG        TELAPSE       54.55 TCPU       52.42
 TTTTTTTTTTTTTTTTTTTTTTTTTTTTTT MOQGAD      TELAPSE       54.56 TCPU       52.43
 TTTTTTTTTTTTTTTTTTTTTTTTTTTTTT SHELLXN     TELAPSE       57.01 TCPU       54.85
 TTTTTTTTTTTTTTTTTTTTTTTTTTTTTT MONMO3      TELAPSE       57.94 TCPU       55.78
 NUMERICALLY INTEGRATED DENSITY    319.9998407987
 TTTTTTTTTTTTTTTTTTTTTTTTTTTTTT NUMDFT      TELAPSE       58.29 TCPU       56.14
 CYC   9 ETOT(AU) -2.057755226000E+03 DETOT -2.60E-07 tst  1.35E-09 PX  4.84E-05
 TTTTTTTTTTTTTTTTTTTTTTTTTTTTTT DIIS        TELAPSE       58.33 TCPU       56.17
 DIIS TEST: 0.68719E-07 AT SCF   CYCLE   9 - DIIS ACTIVE - HISTORY:     9 CYCLES
 TTTTTTTTTTTTTTTTTTTTTTTTTTTTTT FDIK        TELAPSE       58.91 TCPU       56.75
 INSULATING STATE
 TOP OF VALENCE BANDS -    BAND    160; K   10; EIG -2.4479727E-01 AU
 TOP OF VALENCE BANDS -    BAND    160; K    1; EIG -2.4510414E-01 AU
 BOTTOM OF VIRTUAL BANDS - BAND    161; K   16; EIG -1.0223696E-02 AU
 INDIRECT ENERGY BAND GAP:   6.3831 eV
 BOTTOM OF VIRTUAL BANDS - BAND    161; K    1; EIG -5.6260719E-03 AU
 TTTTTTTTTTTTTTTTTTTTTTTTTTTTTT PDIG        TELAPSE       59.26 TCPU       57.10
 TTTTTTTTTTTTTTTTTTTTTTTTTTTTTT MOQGAD      TELAPSE       59.27 TCPU       57.10
 TTTTTTTTTTTTTTTTTTTTTTTTTTTTTT SHELLXN     TELAPSE       61.70 TCPU       59.53
 TTTTTTTTTTTTTTTTTTTTTTTTTTTTTT MONMO3      TELAPSE       62.65 TCPU       60.49
 NUMERICALLY INTEGRATED DENSITY    319.9998407981
 TTTTTTTTTTTTTTTTTTTTTTTTTTTTTT NUMDFT      TELAPSE       63.00 TCPU       60.84
 CYC  10 ETOT(AU) -2.057755226024E+03 DETOT -2.38E-08 tst  9.63E-11 PX  2.53E-05
 TTTTTTTTTTTTTTTTTTTTTTTTTTTTTT DIIS        TELAPSE       63.07 TCPU       60.90
 DIIS TEST: 0.54973E-08 AT SCF   CYCLE  10 - DIIS ACTIVE - HISTORY:    10 CYCLES
 TTTTTTTTTTTTTTTTTTTTTTTTTTTTTT FDIK        TELAPSE       63.65 TCPU       61.48
 INSULATING STATE
 TOP OF VALENCE BANDS -    BAND    160; K   10; EIG -2.4479720E-01 AU
 TOP OF VALENCE BANDS -    BAND    160; K    1; EIG -2.4510401E-01 AU
 BOTTOM OF VIRTUAL BANDS - BAND    161; K   16; EIG -1.0221642E-02 AU
 INDIRECT ENERGY BAND GAP:   6.3831 eV
 BOTTOM OF VIRTUAL BANDS - BAND    161; K    1; EIG -5.6241763E-03 AU
 TTTTTTTTTTTTTTTTTTTTTTTTTTTTTT PDIG        TELAPSE       64.00 TCPU       61.82
 TTTTTTTTTTTTTTTTTTTTTTTTTTTTTT MOQGAD      TELAPSE       64.00 TCPU       61.83
 TTTTTTTTTTTTTTTTTTTTTTTTTTTTTT SHELLXN     TELAPSE       66.43 TCPU       64.26
 TTTTTTTTTTTTTTTTTTTTTTTTTTTTTT MONMO3      TELAPSE       67.39 TCPU       65.22
 NUMERICALLY INTEGRATED DENSITY    319.9998407976
 TTTTTTTTTTTTTTTTTTTTTTTTTTTTTT NUMDFT      TELAPSE       67.74 TCPU       65.57
 CYC  11 ETOT(AU) -2.057755226038E+03 DETOT -1.49E-08 tst  1.15E-11 PX  5.83E-06
 TTTTTTTTTTTTTTTTTTTTTTTTTTTTTT DIIS        TELAPSE       68.00 TCPU       65.82
 DIIS TEST: 0.43202E-09 AT SCF   CYCLE  11 - DIIS ACTIVE - HISTORY:    11 CYCLES
 TTTTTTTTTTTTTTTTTTTTTTTTTTTTTT FDIK        TELAPSE       68.57 TCPU       66.40
 INSULATING STATE
 TOP OF VALENCE BANDS -    BAND    160; K   10; EIG -2.4479681E-01 AU
 TOP OF VALENCE BANDS -    BAND    160; K    1; EIG -2.4510365E-01 AU
 BOTTOM OF VIRTUAL BANDS - BAND    161; K   16; EIG -1.0221652E-02 AU
 INDIRECT ENERGY BAND GAP:   6.3831 eV
 BOTTOM OF VIRTUAL BANDS - BAND    161; K    1; EIG -5.6241087E-03 AU
 TTTTTTTTTTTTTTTTTTTTTTTTTTTTTT PDIG        TELAPSE       68.93 TCPU       66.76
 TTTTTTTTTTTTTTTTTTTTTTTTTTTTTT MOQGAD      TELAPSE       68.94 TCPU       66.76
 TTTTTTTTTTTTTTTTTTTTTTTTTTTTTT SHELLXN     TELAPSE       71.36 TCPU       69.18
 TTTTTTTTTTTTTTTTTTTTTTTTTTTTTT MONMO3      TELAPSE       72.36 TCPU       70.19
 NUMERICALLY INTEGRATED DENSITY    319.9998407978
 TTTTTTTTTTTTTTTTTTTTTTTTTTTTTT NUMDFT      TELAPSE       72.79 TCPU       70.61
 CYC  12 ETOT(AU) -2.057755226037E+03 DETOT  1.73E-09 tst  1.37E-12 PX  1.57E-06
 TTTTTTTTTTTTTTTTTTTTTTTTTTTTTT DIIS        TELAPSE       72.85 TCPU       70.67
 DIIS TEST: 0.37989E-10 AT SCF   CYCLE  12 - DIIS ACTIVE - HISTORY:    12 CYCLES
 TTTTTTTTTTTTTTTTTTTTTTTTTTTTTT FDIK        TELAPSE       73.43 TCPU       71.25
 INSULATING STATE
 TOP OF VALENCE BANDS -    BAND    160; K   10; EIG -2.4479667E-01 AU
 TOP OF VALENCE BANDS -    BAND    160; K    1; EIG -2.4510352E-01 AU
 BOTTOM OF VIRTUAL BANDS - BAND    161; K   16; EIG -1.0221472E-02 AU
 INDIRECT ENERGY BAND GAP:   6.3831 eV
 BOTTOM OF VIRTUAL BANDS - BAND    161; K    1; EIG -5.6239588E-03 AU
 TTTTTTTTTTTTTTTTTTTTTTTTTTTTTT PDIG        TELAPSE       73.78 TCPU       71.60
 TTTTTTTTTTTTTTTTTTTTTTTTTTTTTT MOQGAD      TELAPSE       73.79 TCPU       71.60
 TTTTTTTTTTTTTTTTTTTTTTTTTTTTTT SHELLXN     TELAPSE       76.21 TCPU       74.03
 TTTTTTTTTTTTTTTTTTTTTTTTTTTTTT MONMO3      TELAPSE       77.17 TCPU       74.99
 NUMERICALLY INTEGRATED DENSITY    319.9998407978
 TTTTTTTTTTTTTTTTTTTTTTTTTTTTTT NUMDFT      TELAPSE       77.43 TCPU       75.24
 CYC  13 ETOT(AU) -2.057755226037E+03 DETOT -4.87E-11 tst  1.52E-13 PX  4.44E-07
 TTTTTTTTTTTTTTTTTTTTTTTTTTTTTT DIIS        TELAPSE       77.46 TCPU       75.28
 DIIS TEST: 0.21685E-11 AT SCF   CYCLE  13 - DIIS ACTIVE - HISTORY:    13 CYCLES
 TTTTTTTTTTTTTTTTTTTTTTTTTTTTTT FDIK        TELAPSE       78.04 TCPU       75.85
 INSULATING STATE
[...]
Note: The following floating-point exceptions are signalling: IEEE_UNDERFLOW_FLAG IEEE_DENORMAL
Note: The following floating-point exceptions are signalling: IEEE_UNDERFLOW_FLAG IEEE_DENORMAL
Note: The following floating-point exceptions are signalling: IEEE_UNDERFLOW_FLAG IEEE_DENORMAL
Note: The following floating-point exceptions are signalling: IEEE_UNDERFLOW_FLAG IEEE_DENORMAL
Note: The following floating-point exceptions are signalling: IEEE_UNDERFLOW_FLAG IEEE_DENORMAL
Note: The following floating-point exceptions are signalling: IEEE_UNDERFLOW_FLAG IEEE_DENORMAL
Note: The following floating-point exceptions are signalling: IEEE_UNDERFLOW_FLAG IEEE_DENORMAL
Note: The following floating-point exceptions are signalling: IEEE_UNDERFLOW_FLAG IEEE_DENORMAL
Note: The following floating-point exceptions are signalling: IEEE_UNDERFLOW_FLAG IEEE_DENORMAL
Note: The following floating-point exceptions are signalling: IEEE_UNDERFLOW_FLAG IEEE_DENORMAL
Note: The following floating-point exceptions are signalling: IEEE_UNDERFLOW_FLAG IEEE_DENORMAL
Note: The following floating-point exceptions are signalling: IEEE_UNDERFLOW_FLAG IEEE_DENORMAL
Note: The following floating-point exceptions are signalling: IEEE_UNDERFLOW_FLAG IEEE_DENORMAL
Note: The following floating-point exceptions are signalling: IEEE_UNDERFLOW_FLAG IEEE_DENORMAL
Note: The following floating-point exceptions are signalling: IEEE_UNDERFLOW_FLAG IEEE_DENORMAL
Note: The following floating-point exceptions are signalling: IEEE_UNDERFLOW_FLAG IEEE_DENORMAL
Note: The following floating-point exceptions are signalling: IEEE_UNDERFLOW_FLAG IEEE_DENORMAL
Note: The following floating-point exceptions are signalling: IEEE_UNDERFLOW_FLAG IEEE_DENORMAL
Note: The following floating-point exceptions are signalling: IEEE_UNDERFLOW_FLAG IEEE_DENORMAL
Note: The following floating-point exceptions are signalling: IEEE_UNDERFLOW_FLAG IEEE_DENORMAL
Note: The following floating-point exceptions are signalling: IEEE_UNDERFLOW_FLAG IEEE_DENORMAL
Note: The following floating-point exceptions are signalling: IEEE_UNDERFLOW_FLAG IEEE_DENORMAL
Note: The following floating-point exceptions are signalling: IEEE_UNDERFLOW_FLAG IEEE_DENORMAL
Note: The following floating-point exceptions are signalling: IEEE_UNDERFLOW_FLAG IEEE_DENORMAL
Note: The following floating-point exceptions are signalling: IEEE_UNDERFLOW_FLAG IEEE_DENORMAL
Note: The following floating-point exceptions are signalling: IEEE_UNDERFLOW_FLAG IEEE_DENORMAL
Note: The following floating-point exceptions are signalling: IEEE_UNDERFLOW_FLAG IEEE_DENORMAL
Note: The following floating-point exceptions are signalling: IEEE_UNDERFLOW_FLAG IEEE_DENORMAL
Note: The following floating-point exceptions are signalling: IEEE_UNDERFLOW_FLAG IEEE_DENORMAL
Note: The following floating-point exceptions are signalling: IEEE_UNDERFLOW_FLAG IEEE_DENORMAL
Note: The following floating-point exceptions are signalling: IEEE_UNDERFLOW_FLAG IEEE_DENORMAL
Note: The following floating-point exceptions are signalling: IEEE_UNDERFLOW_FLAG IEEE_DENORMAL
Note: The following floating-point exceptions are signalling: IEEE_UNDERFLOW_FLAG IEEE_DENORMAL
Note: The following floating-point exceptions are signalling: IEEE_UNDERFLOW_FLAG IEEE_DENORMAL
Note: The following floating-point exceptions are signalling: IEEE_UNDERFLOW_FLAG IEEE_DENORMAL
Note: The following floating-point exceptions are signalling: IEEE_UNDERFLOW_FLAG IEEE_DENORMAL
Note: The following floating-point exceptions are signalling: IEEE_UNDERFLOW_FLAG IEEE_DENORMAL
Note: The following floating-point exceptions are signalling: IEEE_UNDERFLOW_FLAG IEEE_DENORMAL
Note: The following floating-point exceptions are signalling: IEEE_UNDERFLOW_FLAG IEEE_DENORMAL
Note: The following floating-point exceptions are signalling: IEEE_UNDERFLOW_FLAG IEEE_DENORMAL
Note: The following floating-point exceptions are signalling: IEEE_UNDERFLOW_FLAG IEEE_DENORMAL
Note: The following floating-point exceptions are signalling: IEEE_UNDERFLOW_FLAG IEEE_DENORMAL
Note: The following floating-point exceptions are signalling: IEEE_UNDERFLOW_FLAG IEEE_DENORMAL
Note: The following floating-point exceptions are signalling: IEEE_UNDERFLOW_FLAG IEEE_DENORMAL
Note: The following floating-point exceptions are signalling: IEEE_UNDERFLOW_FLAG IEEE_DENORMAL
Note: The following floating-point exceptions are signalling: IEEE_UNDERFLOW_FLAG IEEE_DENORMAL
Note: The following floating-point exceptions are signalling: IEEE_UNDERFLOW_FLAG IEEE_DENORMAL
Note: The following floating-point exceptions are signalling: IEEE_UNDERFLOW_FLAG IEEE_DENORMAL
Note: The following floating-point exceptions are signalling: IEEE_UNDERFLOW_FLAG IEEE_DENORMAL
Note: The following floating-point exceptions are signalling: IEEE_UNDERFLOW_FLAG IEEE_DENORMAL
Note: The following floating-point exceptions are signalling: IEEE_UNDERFLOW_FLAG IEEE_DENORMAL
Note: The following floating-point exceptions are signalling: IEEE_UNDERFLOW_FLAG IEEE_DENORMAL
Note: The following floating-point exceptions are signalling: IEEE_UNDERFLOW_FLAG IEEE_DENORMAL
Note: The following floating-point exceptions are signalling: IEEE_UNDERFLOW_FLAG IEEE_DENORMAL
Note: The following floating-point exceptions are signalling: IEEE_UNDERFLOW_FLAG IEEE_DENORMAL
Note: The following floating-point exceptions are signalling: IEEE_UNDERFLOW_FLAG IEEE_DENORMAL
Note: The following floating-point exceptions are signalling: IEEE_UNDERFLOW_FLAG IEEE_DENORMAL
Note: The following floating-point exceptions are signalling: IEEE_UNDERFLOW_FLAG IEEE_DENORMAL
Note: The following floating-point exceptions are signalling: IEEE_UNDERFLOW_FLAG IEEE_DENORMAL
Note: The following floating-point exceptions are signalling: IEEE_UNDERFLOW_FLAG IEEE_DENORMAL
Note: The following floating-point exceptions are signalling: IEEE_UNDERFLOW_FLAG IEEE_DENORMAL
Note: The following floating-point exceptions are signalling: IEEE_UNDERFLOW_FLAG IEEE_DENORMAL
Note: The following floating-point exceptions are signalling: IEEE_UNDERFLOW_FLAG IEEE_DENORMAL
Note: The following floating-point exceptions are signalling: IEEE_UNDERFLOW_FLAG IEEE_DENORMAL
Note: The following floating-point exceptions are signalling: IEEE_UNDERFLOW_FLAG IEEE_DENORMAL
Note: The following floating-point exceptions are signalling: IEEE_UNDERFLOW_FLAG IEEE_DENORMAL
Note: The following floating-point exceptions are signalling: IEEE_UNDERFLOW_FLAG IEEE_DENORMAL
Note: The following floating-point exceptions are signalling: IEEE_UNDERFLOW_FLAG IEEE_DENORMAL
Note: The following floating-point exceptions are signalling: IEEE_UNDERFLOW_FLAG IEEE_DENORMAL
Note: The following floating-point exceptions are signalling: IEEE_UNDERFLOW_FLAG IEEE_DENORMAL
Note: The following floating-point exceptions are signalling: IEEE_UNDERFLOW_FLAG IEEE_DENORMAL
Note: The following floating-point exceptions are signalling: IEEE_UNDERFLOW_FLAG IEEE_DENORMAL
Note: The following floating-point exceptions are signalling: IEEE_UNDERFLOW_FLAG IEEE_DENORMAL
Note: The following floating-point exceptions are signalling: IEEE_UNDERFLOW_FLAG IEEE_DENORMAL
Note: The following floating-point exceptions are signalling: IEEE_UNDERFLOW_FLAG IEEE_DENORMAL
Note: The following floating-point exceptions are signalling: IEEE_UNDERFLOW_FLAG IEEE_DENORMAL
Note: The following floating-point exceptions are signalling: IEEE_UNDERFLOW_FLAG IEEE_DENORMAL
Note: The following floating-point exceptions are signalling: IEEE_UNDERFLOW_FLAG IEEE_DENORMAL
Note: The following floating-point exceptions are signalling: IEEE_UNDERFLOW_FLAG IEEE_DENORMAL
Note: The following floating-point exceptions are signalling: IEEE_UNDERFLOW_FLAG IEEE_DENORMAL
Note: The following floating-point exceptions are signalling: IEEE_UNDERFLOW_FLAG IEEE_DENORMAL
Note: The following floating-point exceptions are signalling: IEEE_UNDERFLOW_FLAG IEEE_DENORMAL
Note: The following floating-point exceptions are signalling: IEEE_UNDERFLOW_FLAG IEEE_DENORMAL
Note: The following floating-point exceptions are signalling: IEEE_UNDERFLOW_FLAG IEEE_DENORMAL
Note: The following floating-point exceptions are signalling: IEEE_UNDERFLOW_FLAG IEEE_DENORMAL
Note: The following floating-point exceptions are signalling: IEEE_UNDERFLOW_FLAG IEEE_DENORMAL
Note: The following floating-point exceptions are signalling: IEEE_UNDERFLOW_FLAG IEEE_DENORMAL
Note: The following floating-point exceptions are signalling: IEEE_UNDERFLOW_FLAG IEEE_DENORMAL
Note: The following floating-point exceptions are signalling: IEEE_UNDERFLOW_FLAG IEEE_DENORMAL
Note: The following floating-point exceptions are signalling: IEEE_UNDERFLOW_FLAG IEEE_DENORMAL
Note: The following floating-point exceptions are signalling: IEEE_UNDERFLOW_FLAG IEEE_DENORMAL
Note: The following floating-point exceptions are signalling: IEEE_UNDERFLOW_FLAG IEEE_DENORMAL
Note: The following floating-point exceptions are signalling: IEEE_UNDERFLOW_FLAG IEEE_DENORMAL
Note: The following floating-point exceptions are signalling: IEEE_UNDERFLOW_FLAG IEEE_DENORMAL
Note: The following floating-point exceptions are signalling: IEEE_UNDERFLOW_FLAG IEEE_DENORMAL
Note: The following floating-point exceptions are signalling: IEEE_UNDERFLOW_FLAG IEEE_DENORMAL
Note: The following floating-point exceptions are signalling: IEEE_UNDERFLOW_FLAG IEEE_DENORMAL
Note: The following floating-point exceptions are signalling: IEEE_UNDERFLOW_FLAG IEEE_DENORMAL
Note: The following floating-point exceptions are signalling: IEEE_UNDERFLOW_FLAG IEEE_DENORMAL
Note: The following floating-point exceptions are signalling: IEEE_UNDERFLOW_FLAG IEEE_DENORMAL
Note: The following floating-point exceptions are signalling: IEEE_UNDERFLOW_FLAG IEEE_DENORMAL
Note: The following floating-point exceptions are signalling: IEEE_UNDERFLOW_FLAG IEEE_DENORMAL
Note: The following floating-point exceptions are signalling: IEEE_UNDERFLOW_FLAG IEEE_DENORMAL
Note: The following floating-point exceptions are signalling: IEEE_UNDERFLOW_FLAG IEEE_DENORMAL
Note: The following floating-point exceptions are signalling: IEEE_UNDERFLOW_FLAG IEEE_DENORMAL
Note: The following floating-point exceptions are signalling: IEEE_UNDERFLOW_FLAG IEEE_DENORMAL
Note: The following floating-point exceptions are signalling: IEEE_UNDERFLOW_FLAG IEEE_DENORMAL
Note: The following floating-point exceptions are signalling: IEEE_UNDERFLOW_FLAG IEEE_DENORMAL
Note: The following floating-point exceptions are signalling: IEEE_UNDERFLOW_FLAG IEEE_DENORMAL
Note: The following floating-point exceptions are signalling: IEEE_UNDERFLOW_FLAG IEEE_DENORMAL
Note: The following floating-point exceptions are signalling: IEEE_UNDERFLOW_FLAG IEEE_DENORMAL
Note: The following floating-point exceptions are signalling: IEEE_UNDERFLOW_FLAG IEEE_DENORMAL
Note: The following floating-point exceptions are signalling: IEEE_UNDERFLOW_FLAG IEEE_DENORMAL
Note: The following floating-point exceptions are signalling: IEEE_UNDERFLOW_FLAG IEEE_DENORMAL
Note: The following floating-point exceptions are signalling: IEEE_UNDERFLOW_FLAG IEEE_DENORMAL
Note: The following floating-point exceptions are signalling: IEEE_UNDERFLOW_FLAG IEEE_DENORMAL
Note: The following floating-point exceptions are signalling: IEEE_UNDERFLOW_FLAG IEEE_DENORMAL
Note: The following floating-point exceptions are signalling: IEEE_UNDERFLOW_FLAG IEEE_DENORMAL
Note: The following floating-point exceptions are signalling: IEEE_UNDERFLOW_FLAG IEEE_DENORMAL
Note: The following floating-point exceptions are signalling: IEEE_UNDERFLOW_FLAG IEEE_DENORMAL
Note: The following floating-point exceptions are signalling: IEEE_UNDERFLOW_FLAG IEEE_DENORMAL
Note: The following floating-point exceptions are signalling: IEEE_UNDERFLOW_FLAG IEEE_DENORMAL
Note: The following floating-point exceptions are signalling: IEEE_UNDERFLOW_FLAG IEEE_DENORMAL
Note: The following floating-point exceptions are signalling: IEEE_UNDERFLOW_FLAG IEEE_DENORMAL
Note: The following floating-point exceptions are signalling: IEEE_UNDERFLOW_FLAG IEEE_DENORMAL
Note: The following floating-point exceptions are signalling: IEEE_UNDERFLOW_FLAG IEEE_DENORMAL
Note: The following floating-point exceptions are signalling: IEEE_UNDERFLOW_FLAG IEEE_DENORMAL
Note: The following floating-point exceptions are signalling: IEEE_UNDERFLOW_FLAG IEEE_DENORMAL
Note: The following floating-point exceptions are signalling: IEEE_UNDERFLOW_FLAG IEEE_DENORMAL
Note: The following floating-point exceptions are signalling: IEEE_UNDERFLOW_FLAG IEEE_DENORMAL
Note: The following floating-point exceptions are signalling: IEEE_UNDERFLOW_FLAG IEEE_DENORMAL
Note: The following floating-point exceptions are signalling: IEEE_UNDERFLOW_FLAG IEEE_DENORMAL
Note: The following floating-point exceptions are signalling: IEEE_UNDERFLOW_FLAG IEEE_DENORMAL
Note: The following floating-point exceptions are signalling: IEEE_UNDERFLOW_FLAG IEEE_DENORMAL
Note: The following floating-point exceptions are signalling: IEEE_UNDERFLOW_FLAG IEEE_DENORMAL
Note: The following floating-point exceptions are signalling: IEEE_UNDERFLOW_FLAG IEEE_DENORMAL
Note: The following floating-point exceptions are signalling: IEEE_UNDERFLOW_FLAG IEEE_DENORMAL
Note: The following floating-point exceptions are signalling: IEEE_UNDERFLOW_FLAG IEEE_DENORMAL
Note: The following floating-point exceptions are signalling: IEEE_UNDERFLOW_FLAG IEEE_DENORMAL
Note: The following floating-point exceptions are signalling: IEEE_UNDERFLOW_FLAG IEEE_DENORMAL
Note: The following floating-point exceptions are signalling: IEEE_UNDERFLOW_FLAG IEEE_DENORMAL
Note: The following floating-point exceptions are signalling: IEEE_UNDERFLOW_FLAG IEEE_DENORMAL
Note: The following floating-point exceptions are signalling: IEEE_UNDERFLOW_FLAG IEEE_DENORMAL
Note: The following floating-point exceptions are signalling: IEEE_UNDERFLOW_FLAG IEEE_DENORMAL
Note: The following floating-point exceptions are signalling: IEEE_UNDERFLOW_FLAG IEEE_DENORMAL
Note: The following floating-point exceptions are signalling: IEEE_UNDERFLOW_FLAG IEEE_DENORMAL
Note: The following floating-point exceptions are signalling: IEEE_UNDERFLOW_FLAG IEEE_DENORMAL
Note: The following floating-point exceptions are signalling: IEEE_UNDERFLOW_FLAG IEEE_DENORMAL
Note: The following floating-point exceptions are signalling: IEEE_UNDERFLOW_FLAG IEEE_DENORMAL
Note: The following floating-point exceptions are signalling: IEEE_UNDERFLOW_FLAG IEEE_DENORMAL
Note: The following floating-point exceptions are signalling: IEEE_UNDERFLOW_FLAG IEEE_DENORMAL
Note: The following floating-point exceptions are signalling: IEEE_UNDERFLOW_FLAG IEEE_DENORMAL
Note: The following floating-point exceptions are signalling: IEEE_UNDERFLOW_FLAG IEEE_DENORMAL
Note: The following floating-point exceptions are signalling: IEEE_UNDERFLOW_FLAG IEEE_DENORMAL
Note: The following floating-point exceptions are signalling: IEEE_UNDERFLOW_FLAG IEEE_DENORMAL
Note: The following floating-point exceptions are signalling: IEEE_UNDERFLOW_FLAG IEEE_DENORMAL
Note: The following floating-point exceptions are signalling: IEEE_UNDERFLOW_FLAG IEEE_DENORMAL
Note: The following floating-point exceptions are signalling: IEEE_UNDERFLOW_FLAG IEEE_DENORMAL
Note: The following floating-point exceptions are signalling: IEEE_UNDERFLOW_FLAG IEEE_DENORMAL
Note: The following floating-point exceptions are signalling: IEEE_UNDERFLOW_FLAG IEEE_DENORMAL
Note: The following floating-point exceptions are signalling: IEEE_UNDERFLOW_FLAG IEEE_DENORMAL
Note: The following floating-point exceptions are signalling: IEEE_UNDERFLOW_FLAG IEEE_DENORMAL
Note: The following floating-point exceptions are signalling: IEEE_UNDERFLOW_FLAG IEEE_DENORMAL
Note: The following floating-point exceptions are signalling: IEEE_UNDERFLOW_FLAG IEEE_DENORMAL
Note: The following floating-point exceptions are signalling: IEEE_UNDERFLOW_FLAG IEEE_DENORMAL
Note: The following floating-point exceptions are signalling: IEEE_UNDERFLOW_FLAG IEEE_DENORMAL
Note: The following floating-point exceptions are signalling: IEEE_UNDERFLOW_FLAG IEEE_DENORMAL
Note: The following floating-point exceptions are signalling: IEEE_UNDERFLOW_FLAG IEEE_DENORMAL
Note: The following floating-point exceptions are signalling: IEEE_UNDERFLOW_FLAG IEEE_DENORMAL
Note: The following floating-point exceptions are signalling: IEEE_UNDERFLOW_FLAG IEEE_DENORMAL
Note: The following floating-point exceptions are signalling: IEEE_UNDERFLOW_FLAG IEEE_DENORMAL
Note: The following floating-point exceptions are signalling: IEEE_UNDERFLOW_FLAG IEEE_DENORMAL
Note: The following floating-point exceptions are signalling: IEEE_UNDERFLOW_FLAG IEEE_DENORMAL
Note: The following floating-point exceptions are signalling: IEEE_UNDERFLOW_FLAG IEEE_DENORMAL
Note: The following floating-point exceptions are signalling: IEEE_UNDERFLOW_FLAG IEEE_DENORMAL
Note: The following floating-point exceptions are signalling: IEEE_UNDERFLOW_FLAG IEEE_DENORMAL
Note: The following floating-point exceptions are signalling: IEEE_UNDERFLOW_FLAG IEEE_DENORMAL
Note: The following floating-point exceptions are signalling: IEEE_UNDERFLOW_FLAG IEEE_DENORMAL
Note: The following floating-point exceptions are signalling: IEEE_UNDERFLOW_FLAG IEEE_DENORMAL
Note: The following floating-point exceptions are signalling: IEEE_UNDERFLOW_FLAG IEEE_DENORMAL
Note: The following floating-point exceptions are signalling: IEEE_UNDERFLOW_FLAG IEEE_DENORMAL
Note: The following floating-point exceptions are signalling: IEEE_UNDERFLOW_FLAG IEEE_DENORMAL
Note: The following floating-point exceptions are signalling: IEEE_UNDERFLOW_FLAG IEEE_DENORMAL
Note: The following floating-point exceptions are signalling: IEEE_UNDERFLOW_FLAG IEEE_DENORMAL
Note: The following floating-point exceptions are signalling: IEEE_UNDERFLOW_FLAG IEEE_DENORMAL
Note: The following floating-point exceptions are signalling: IEEE_UNDERFLOW_FLAG IEEE_DENORMAL
Note: The following floating-point exceptions are signalling: IEEE_UNDERFLOW_FLAG IEEE_DENORMAL
Note: The following floating-point exceptions are signalling: IEEE_UNDERFLOW_FLAG IEEE_DENORMAL
Note: The following floating-point exceptions are signalling: IEEE_UNDERFLOW_FLAG IEEE_DENORMAL
Note: The following floating-point exceptions are signalling: IEEE_UNDERFLOW_FLAG IEEE_DENORMAL
Note: The following floating-point exceptions are signalling: IEEE_UNDERFLOW_FLAG IEEE_DENORMAL
Note: The following floating-point exceptions are signalling: IEEE_UNDERFLOW_FLAG IEEE_DENORMAL
Note: The following floating-point exceptions are signalling: IEEE_UNDERFLOW_FLAG IEEE_DENORMAL
Note: The following floating-point exceptions are signalling: IEEE_UNDERFLOW_FLAG IEEE_DENORMAL
Note: The following floating-point exceptions are signalling: IEEE_UNDERFLOW_FLAG IEEE_DENORMAL
Note: The following floating-point exceptions are signalling: IEEE_UNDERFLOW_FLAG IEEE_DENORMAL
Note: The following floating-point exceptions are signalling: IEEE_UNDERFLOW_FLAG IEEE_DENORMAL
Note: The following floating-point exceptions are signalling: IEEE_UNDERFLOW_FLAG IEEE_DENORMAL
Note: The following floating-point exceptions are signalling: IEEE_UNDERFLOW_FLAG IEEE_DENORMAL
Note: The following floating-point exceptions are signalling: IEEE_UNDERFLOW_FLAG IEEE_DENORMAL
Note: The following floating-point exceptions are signalling: IEEE_UNDERFLOW_FLAG IEEE_DENORMAL
Note: The following floating-point exceptions are signalling: IEEE_UNDERFLOW_FLAG IEEE_DENORMAL
Note: The following floating-point exceptions are signalling: IEEE_UNDERFLOW_FLAG IEEE_DENORMAL
Note: The following floating-point exceptions are signalling: IEEE_UNDERFLOW_FLAG IEEE_DENORMAL
Note: The following floating-point exceptions are signalling: IEEE_UNDERFLOW_FLAG IEEE_DENORMAL
Note: The following floating-point exceptions are signalling: IEEE_UNDERFLOW_FLAG IEEE_DENORMAL
Note: The following floating-point exceptions are signalling: IEEE_UNDERFLOW_FLAG IEEE_DENORMAL
Note: The following floating-point exceptions are signalling: IEEE_UNDERFLOW_FLAG IEEE_DENORMAL
