Lmod has detected the following error: The following module(s) are unknown:
"epcc-job-env"

Please check the spelling or version number. Also try "module spider ..."
It is also possible your cache file is out-of-date; it may help to try:
  $ module --ignore-cache load "epcc-job-env"

Also make sure that all modulefiles written in TCL start with the string
#%Module




Warning: You have enabled access to software packages installed
by external parties on ARCHER2 or those that are not fully-supported.
The ARCHER2 CSE service does not test these packages. The service desk
will make reasonable efforts to assist with questions on the use of
these packages but some issues may not be able to be resolved by the
service and they may direct you to seek help from external parties.


         512 PROCESSORS WORKING

         
 *******************************************************************************
 *                                                                             *
 *                               CRYSTAL17                                     *
 *                      public : 1.0.2 - March 1st, 2018 STFC/Archer2 build    *
 *                       HTTP://WWW.CRYSTAL.UNITO.IT                           *
 *                                                                             *
 *                              MAIN AUTHORS                                   *
 *                                                                             *
 *  R. DOVESI(1,11), V.R. SAUNDERS(2), C. ROETTI(1,11), R. ORLANDO(1,11),      *
 *  C.M. ZICOVICH-WILSON(1,3), F. PASCALE(4), B. CIVALLERI(1,11),              *
 *  K. DOLL(5), N.M. HARRISON(2,6), I.J. BUSH(7), Ph. D'ARCO(8),               *
 *  M. LLUNELL(9), M. CAUSA'(10), Y. NOEL(8), L. MASCHIO(1,11), A. ERBA(1,11)  *
 *  M. RE'RAT(14), S. CASASSA(1,11)                                            *
 *                                                                             *
 *        CONTRIBUTIONS TO THE CODE HAVE ALSO BEEN GIVEN BY                    *
 *                                                                             *
 *  M. FERRABONE(1,11), M. DE LA PIERRE(1,11), M. FERRERO(1,11),               *
 *  J. BAIMA(1,11), E. ALBANESE(1,11), M.F. PEINTINGER(12), R. BAST(13),       *
 *  B. KIRTMAN(15), V. LACIVITA(1,11), R. DEMICHELIS(1,16)                     *
 *  G. BRANDEBURG(17), S. SALUSTRO(1,11), G. SANSONE(1,11)                     *
 *  M.T. RUGGIERO(18)                                                          *
 *                                                                             *
 * (1) THEORETICAL CHEMISTRY GROUP - UNIVERSITA' DI TORINO - TORINO (ITALY)    *
 * (2) COMPUTATIONAL SCIENCE & ENGINEERING DEPARTMENT - STFC DARESBURY (UK)    *
 * (3) UNIVERSIDAD AUTONOMA DEL ESTADO DE MORELOS - CUERNAVACA (MEXICO)        *
 * (4) UNIVERSITE' DE LORRAINE - NANCY (FRANCE)                                *
 * (5) UNIVERSITAET STUTTGART- STUTTGART (GERMANY)                             *
 * (6) IMPERIAL COLLEGE - LONDON (UK)                                          *
 * (7) OXFORD E-RESEARCH CENTRE - OXFORD (UK)                                  *
 * (8) UPMC - SORBONNE UNIVERSITES - PARIS (FRANCE)                            *
 * (9) UNIVERSIDAD DE BARCELONA - BARCELONA (SPAIN)                            *
 *(10) UNIVERSITA' DI NAPOLI "FEDERICO II" - NAPOLI (ITALY)                    *
 *(11) NIS - NANOSTRUCTURED INTERFACES AND SURFACES - TORINO (ITALY)           *
 *(12) MPI FUER CHEMISCHE ENERGIEKONVERSION - MUELHEIM AN DER RUHR (GERMANY)   *
 *(13) UNIVERSITY OF TROMSO - TROMSO (NORWAY)                                  *
 *(14) UNIVERSITE' DE PAU ET DES PAYS DE L'ADOUR - PAU (FRANCE)                *
 *(15) UNIVERSITY OF CALIFORNIA SANTA BARBARA - SANTA BARBARA (USA)            *
 *(16) CURTIN UNIVERSITY - PERTH (AUSTRALIA)                                   *
 *(17) UNIVERSITY COLLEGE LONDON - LONDON (UK)                                 *
 *(18) CAMBRIDGE UNIVERSITY - CAMBRIDGE (UK)                                   *
 *                                                                             *
 *******************************************************************************
 EEEEEEEEEE STARTING  DATE 04 03 2022 TIME 13:53:18.5
 F1 vol step-3 freq - PBEh-3c                                                    

 GEOMETRY INPUT FROM EXTERNAL FILE (FORTRAN UNIT 34)
 3D - CRYSTAL 

 *******************************************************************************
 LATTICE PARAMETERS  (ANGSTROMS AND DEGREES) - PRIMITIVE CELL
       A          B          C        ALPHA      BETA     GAMMA        VOLUME
    7.13062    9.19126   12.61379    90.00000 116.14712  90.00000    742.100385

 NUMBER OF IRREDUCIBLE ATOMS IN THE CELL:   20

 CARTESIAN COORDINATES (ANGSTROM) - IRREDUCIBLE ATOMS AND SYMMETRY RELATED

 AT.IRR.  AT  AT.N.          X                   Y                   Z
     1     1     8    2.783322904112E+00 -6.158006087670E-01  2.420410235114E+00
     1     2     8    1.557008257018E+00  3.979831628241E+00  3.249495414171E+00
     1     3     8   -2.783322904112E+00  6.158006087670E-01 -2.420410235114E+00
     1     4     8   -1.557008257018E+00 -3.979831628241E+00 -3.249495414171E+00
     5     5     8    7.797091154960E-01  4.549382345376E+00 -2.230865035604E+00
     5     6     8    2.010567434648E+00 -4.624989163200E-02 -3.425217120509E+00
     5     7     8   -7.797091154960E-01 -4.549382345376E+00  2.230865035604E+00
     5     8     8   -2.010567434648E+00  4.624989163200E-02  3.425217120509E+00
     9     9     7    2.959231964104E+00 -4.206999199564E+00 -1.813106761320E+00
     9    10     7   -1.689554139600E-01  3.886330374440E-01 -3.842975394793E+00
     9    11     7   -2.959231964104E+00  4.206999199564E+00  1.813106761320E+00
     9    12     7    1.689554139600E-01 -3.886330374440E-01  3.842975394793E+00
    13    13     6    2.865003580461E+00 -3.331197010317E+00 -7.177358626900E-01
    13    14     6   -7.472703031700E-02  1.264435226690E+00 -4.938346293423E+00
    13    15     6   -2.865003580461E+00  3.331197010317E+00  7.177358626900E-01
    13    16     6    7.472703031700E-02 -1.264435226690E+00  4.938346293423E+00
    17    17     6    1.793559791403E+00 -3.289867499371E+00  1.673968651660E-01
    17    18     6    9.967167587410E-01  1.305764737636E+00 -5.823479021279E+00
    17    19     6   -1.793559791403E+00  3.289867499371E+00 -1.673968651660E-01
    17    20     6   -9.967167587410E-01 -1.305764737636E+00  5.823479021279E+00
    21    21     6    1.786929002081E+00 -2.380013073412E+00  1.214093818405E+00
    21    22     6    2.553402159049E+00  2.215619163596E+00  4.455811830880E+00
    21    23     6   -1.786929002081E+00  2.380013073412E+00 -1.214093818405E+00
    21    24     6   -2.553402159049E+00 -2.215619163596E+00 -4.455811830880E+00
    25    25     6    2.850658696076E+00 -1.504762673026E+00  1.409320878987E+00
    25    26     6    1.489672465054E+00  3.090869563981E+00  4.260584770298E+00
    25    27     6   -2.850658696076E+00  1.504762673026E+00 -1.409320878987E+00
    25    28     6   -1.489672465054E+00 -3.090869563981E+00 -4.260584770298E+00
    29    29     6   -3.192512993401E+00 -1.571333644277E+00  5.295564639830E-01
    29    30     6    4.022364432570E-01  3.024298592731E+00  5.126525692130E+00
    29    31     6    3.192512993401E+00  1.571333644277E+00 -5.295564639830E-01
    29    32     6   -4.022364432570E-01 -3.024298592731E+00 -5.126525692130E+00
    33    33     6   -3.192584325173E+00 -2.470736106469E+00 -5.195376094290E-01
    33    34     6   -1.147746835957E+00  2.124896130539E+00 -5.150368039856E+00
    33    35     6    3.192584325173E+00  2.470736106469E+00  5.195376094290E-01
    33    36     6    1.147746835957E+00 -2.124896130539E+00  5.150368039856E+00
    37    37     6    1.971628369482E+00  4.419757702865E+00 -2.518022576494E+00
    37    38     6    8.186481806620E-01 -1.758745341420E-01 -3.138059579619E+00
    37    39     6   -1.971628369482E+00 -4.419757702865E+00  2.518022576494E+00
    37    40     6   -8.186481806620E-01  1.758745341420E-01  3.138059579619E+00
    41    41     6    2.412676169247E+00  3.599595767705E+00 -3.696326943669E+00
    41    42     6    3.776003808970E-01 -9.960364693020E-01 -1.959755212444E+00
    41    43     6   -2.412676169247E+00 -3.599595767705E+00  3.696326943669E+00
    41    44     6   -3.776003808970E-01  9.960364693020E-01  1.959755212444E+00
    45    45     1    9.556064537450E-01 -3.958230327752E+00  6.015551638200E-02
    45    46     1    1.834670096399E+00  6.374019092550E-01 -5.716237672495E+00
    45    47     1   -9.556064537450E-01  3.958230327752E+00 -6.015551638200E-02
    45    48     1   -1.834670096399E+00 -6.374019092550E-01  5.716237672495E+00
    49    49     1    9.390199929030E-01 -2.364258529537E+00  1.887088460201E+00
    49    50     1    3.401311168227E+00  2.231373707470E+00  3.782817189084E+00
    49    51     1   -9.390199929030E-01  2.364258529537E+00 -1.887088460201E+00
    49    52     1   -3.401311168227E+00 -2.231373707470E+00 -3.782817189084E+00
    53    53     1   -2.348623226780E+00 -9.064172365660E-01  6.547080960770E-01
    53    54     1   -4.416533233640E-01  3.689215000442E+00  5.001374060036E+00
    53    55     1    2.348623226780E+00  9.064172365660E-01 -6.547080960770E-01
    53    56     1    4.416533233640E-01 -3.689215000442E+00 -5.001374060036E+00
    57    57     1   -2.337791096712E+00 -2.504343432067E+00 -1.182618451165E+00
    57    58     1   -2.002540064418E+00  2.091288804940E+00 -4.487287198120E+00
    57    59     1    2.337791096712E+00  2.504343432067E+00  1.182618451165E+00
    57    60     1    2.002540064418E+00 -2.091288804940E+00  4.487287198120E+00
    61    61     1   -3.465207205980E+00 -2.509100883610E-01  2.649089687975E+00
    61    62     1    6.749306558360E-01  4.344722148647E+00  3.006992468138E+00
    61    63     1    3.465207205980E+00  2.509100883610E-01 -2.649089687975E+00
    61    64     1   -6.749306558360E-01 -4.344722148647E+00 -3.006992468138E+00
    65    65     1   -3.231873434696E+00 -4.340118510864E+00 -2.184176488607E+00
    65    66     1   -1.108457726434E+00  2.555137261430E-01 -3.485729160678E+00
    65    67     1    3.231873434696E+00  4.340118510864E+00  2.184176488607E+00
    65    68     1    1.108457726434E+00 -2.555137261430E-01  3.485729160678E+00
    69    69     1    1.779014488108E+00  3.805585720200E+00 -4.557323817707E+00
    69    70     1    1.011262062036E+00 -7.900465168070E-01 -1.098758338406E+00
    69    71     1   -1.779014488108E+00 -3.805585720200E+00  4.557323817707E+00
    69    72     1   -1.011262062036E+00  7.900465168070E-01  1.098758338406E+00
    73    73     1    3.451648393105E+00  3.767558526283E+00 -3.971403643765E+00
    73    74     1   -6.613718429610E-01 -8.280737107250E-01 -1.684678512348E+00
    73    75     1   -3.451648393105E+00 -3.767558526283E+00  3.971403643765E+00
    73    76     1    6.613718429610E-01  8.280737107250E-01  1.684678512348E+00
    77    77     1    2.287816213301E+00  2.540917521796E+00 -3.474055094937E+00
    77    78     1    5.024603368430E-01 -2.054714715211E+00 -2.182027061177E+00
    77    79     1   -2.287816213301E+00 -2.540917521796E+00  3.474055094937E+00
    77    80     1   -5.024603368430E-01  2.054714715211E+00  2.182027061177E+00

 SPACE  GROUP  N.                     :   14
 NUMBER OF SYMMETRY OPERATORS         :    4
 *******************************************************************************
 LATTICE PARAMETERS (ANGSTROMS AND DEGREES) - BOHR = 0.5291772083 ANGSTROM
 PRIMITIVE CELL - CENTRING CODE 1/0 VOLUME=   742.100385 - DENSITY  1.352 g/cm^3
         A              B              C           ALPHA      BETA       GAMMA 
     7.13062111     9.19126447    12.61378747    90.000000 116.147118  90.000000
 *******************************************************************************
 ATOMS IN THE ASYMMETRIC UNIT   20 - ATOMS IN THE UNIT CELL:   80
     ATOM                 X/A                 Y/B                 Z/C    
 *******************************************************************************
      1 T   8 O    -4.427449363170E-01 -6.699846473873E-02  2.132842979432E-01
      2 F   8 O     4.427449363186E-01  4.330015352610E-01  2.867157020579E-01
      3 F   8 O     4.427449363170E-01  6.699846473873E-02 -2.132842979432E-01
      4 F   8 O    -4.427449363186E-01 -4.330015352610E-01 -2.867157020579E-01
      5 T   8 O    -4.495014183095E-02  4.949680599699E-01 -1.971544618761E-01
      6 F   8 O     4.495014182991E-02 -5.031940029876E-03 -3.028455381251E-01
      7 F   8 O     4.495014183095E-02 -4.949680599699E-01  1.971544618761E-01
      8 F   8 O    -4.495014182991E-02  5.031940029876E-03  3.028455381251E-01
      9 T   7 N     2.892897240961E-01 -4.577171303748E-01 -1.606328997437E-01
     10 F   7 N    -2.892897240971E-01  4.228286962501E-02 -3.393671002575E-01
     11 F   7 N    -2.892897240961E-01  4.577171303748E-01  1.606328997437E-01
     12 F   7 N     2.892897240971E-01 -4.228286962501E-02  3.393671002575E-01
     13 T   6 C     3.517973313137E-01 -3.624307645301E-01 -6.387804409082E-02
     14 F   6 C    -3.517973313147E-01  1.375692354696E-01 -4.361219559103E-01
     15 F   6 C    -3.517973313137E-01  3.624307645301E-01  6.387804409082E-02
     16 F   6 C     3.517973313147E-01 -1.375692354696E-01  4.361219559103E-01
     17 T   6 C     2.628595019293E-01 -3.579341567931E-01  1.447673708729E-02
     18 F   6 C    -2.628595019303E-01  1.420658432065E-01  4.855232629116E-01
     19 F   6 C    -2.628595019293E-01  3.579341567931E-01 -1.447673708729E-02
     20 F   6 C     2.628595019303E-01 -1.420658432065E-01 -4.855232629116E-01
     21 T   6 C     3.342758666551E-01 -2.589429430672E-01  1.069179093288E-01
     22 F   6 C    -3.342758666535E-01  2.410570569326E-01  3.930820906723E-01
     23 F   6 C    -3.342758666551E-01  2.589429430672E-01 -1.069179093288E-01
     24 F   6 C     3.342758666535E-01 -2.410570569326E-01 -3.930820906723E-01
     25 T   6 C     4.968049833949E-01 -1.637166112758E-01  1.239774511743E-01
     26 F   6 C    -4.968049833932E-01  3.362833887239E-01  3.760225488269E-01
     27 F   6 C    -4.968049833949E-01  1.637166112758E-01 -1.239774511743E-01
     28 F   6 C     4.968049833932E-01 -3.362833887239E-01 -3.760225488269E-01
     29 T   6 C    -4.106900760858E-01 -1.709594635992E-01  4.731487456103E-02
     30 F   6 C     4.106900760869E-01  3.290405364006E-01  4.526851254401E-01
     31 F   6 C     4.106900760858E-01  1.709594635992E-01 -4.731487456103E-02
     32 F   6 C    -4.106900760869E-01 -3.290405364006E-01 -4.526851254401E-01
     33 T   6 C    -4.832111352500E-01 -2.688135145553E-01 -4.533685415506E-02
     34 F   6 C     4.832111352484E-01  2.311864854444E-01 -4.546631458461E-01
     35 F   6 C     4.832111352500E-01  2.688135145553E-01  4.533685415506E-02
     36 F   6 C    -4.832111352484E-01 -2.311864854444E-01  4.546631458461E-01
     37 T   6 C     1.021978084350E-01  4.808650338980E-01 -2.227191223243E-01
     38 F   6 C    -1.021978084360E-01 -1.913496610169E-02 -2.772808776769E-01
     39 F   6 C    -1.021978084350E-01 -4.808650338980E-01  2.227191223243E-01
     40 F   6 C     1.021978084360E-01  1.913496610169E-02  2.772808776769E-01
     41 T   6 C     8.254968056536E-02  3.916322697361E-01 -3.268577052604E-01
     42 F   6 C    -8.254968056640E-02 -1.083677302636E-01 -1.731422947407E-01
     43 F   6 C    -8.254968056536E-02 -3.916322697361E-01  3.268577052604E-01
     44 F   6 C     8.254968056640E-02  1.083677302636E-01  1.731422947407E-01
     45 T   1 H     1.380445002593E-01 -4.306513362705E-01  5.149081782027E-03
     46 F   1 H    -1.380445002603E-01  6.934866372920E-02  4.948509182168E-01
     47 F   1 H    -1.380445002593E-01  4.306513362705E-01 -5.149081782027E-03
     48 F   1 H     1.380445002603E-01 -6.934866372920E-02 -4.948509182168E-01
     49 T   1 H     2.619941988938E-01 -2.572288651055E-01  1.664992421610E-01
     50 F   1 H    -2.619941988922E-01  2.427711348941E-01  3.335007578402E-01
     51 F   1 H    -2.619941988938E-01  2.572288651055E-01 -1.664992421610E-01
     52 F   1 H     2.619941988922E-01 -2.427711348941E-01 -3.335007578402E-01
     53 T   1 H    -2.838054228580E-01 -9.861725110055E-02  5.822327719300E-02
     54 F   1 H     2.838054228590E-01  4.013827488992E-01  4.417767228081E-01
     55 F   1 H     2.838054228580E-01  9.861725110055E-02 -5.822327719300E-02
     56 F   1 H    -2.838054228590E-01 -4.013827488992E-01 -4.417767228081E-01
     57 T   1 H    -4.092797235979E-01 -2.724699565708E-01 -1.040438189561E-01
     58 F   1 H     4.092797235963E-01  2.275300434289E-01 -3.959561810450E-01
     59 F   1 H     4.092797235979E-01  2.724699565708E-01  1.040438189561E-01
     60 F   1 H    -4.092797235963E-01 -2.275300434289E-01  3.959561810450E-01
     61 T   1 H    -3.023988553038E-01 -2.729875623427E-02  2.345501553248E-01
     62 F   1 H     3.023988553048E-01  4.727012437655E-01  2.654498446763E-01
     63 F   1 H     3.023988553038E-01  2.729875623427E-02 -2.345501553248E-01
     64 F   1 H    -3.023988553048E-01 -4.727012437655E-01 -2.654498446763E-01
     65 T   1 H     3.962280423085E-01 -4.722003727704E-01 -1.923442933662E-01
     66 F   1 H    -3.962280423101E-01  2.779962722923E-02 -3.076557066350E-01
     67 F   1 H    -3.962280423085E-01  4.722003727704E-01  1.923442933662E-01
     68 F   1 H     3.962280423101E-01 -2.779962722923E-02  3.076557066350E-01
     69 T   1 H    -6.574064738466E-02  4.140437619826E-01 -4.027889735833E-01
     70 F   1 H     6.574064738362E-02 -8.595623801710E-02 -9.721102641784E-02
     71 F   1 H     6.574064738466E-02 -4.140437619826E-01  4.027889735833E-01
     72 F   1 H    -6.574064738362E-02  8.595623801710E-02  9.721102641784E-02
     73 T   1 H     2.091037574695E-01  4.099064428983E-01 -3.513292486251E-01
     74 F   1 H    -2.091037574706E-01 -9.009355710149E-02 -1.486707513761E-01
     75 F   1 H    -2.091037574695E-01 -4.099064428983E-01  3.513292486251E-01
     76 F   1 H     2.091037574706E-01  9.009355710149E-02  1.486707513761E-01
     77 T   1 H     8.041892730374E-02  2.764491794332E-01 -3.072061781919E-01
     78 F   1 H    -8.041892730485E-02 -2.235508205665E-01 -1.927938218094E-01
     79 F   1 H    -8.041892730374E-02 -2.764491794332E-01  3.072061781919E-01
     80 F   1 H     8.041892730485E-02  2.235508205665E-01  1.927938218094E-01

 T = ATOM BELONGING TO THE ASYMMETRIC UNIT
 *******************************************************************************
 * GEOMETRY EDITING - INPUT COORDINATES ARE GIVEN IN ANGSTROM         
 *******************************************************************************

 GEOMETRY NOW FULLY CONSISTENT WITH THE GROUP

 FRQFRQFRQFRQFRQFRQFRQFRQFRQFRQFRQFRQFRQFRQFRQFRQFRQFRQFRQFRQFRQFRQFRQFRQFRQFRQ

                       FREQUENCY CALCULATION

 INFORMATION **** INPFREQ ****  PRINTING OF EIGENVECTORS
 INFORMATION **** INPFREQ **** NEW DEFAULT - IMPOSING ECKART CONDITIONS TO THE HESSIAN

 GCALCO - MAX INDICES DIRECT LATTICE VECTOR    20    14    11
 NO.OF VECTORS CREATED 6999 STARS 1868 RMAX   202.86872 BOHR

 GEOMETRY FOR WAVE FUNCTION - DIMENSIONALITY OF THE SYSTEM    3
 (NON PERIODIC DIRECTION: LATTICE PARAMETER FORMALLY SET TO 500)
 *******************************************************************************
 LATTICE PARAMETERS (ANGSTROMS AND DEGREES) - BOHR = 0.5291772083 ANGSTROM
 PRIMITIVE CELL - CENTRING CODE 1/0 VOLUME=   742.100385 - DENSITY  1.352 g/cm^3
         A              B              C           ALPHA      BETA       GAMMA 
     7.13062111     9.19126447    12.61378747    90.000000 116.147118  90.000000
 *******************************************************************************
 ATOMS IN THE ASYMMETRIC UNIT   20 - ATOMS IN THE UNIT CELL:   80
     ATOM                 X/A                 Y/B                 Z/C    
 *******************************************************************************
      1 T   8 O    -4.427449363170E-01 -6.699846473873E-02  2.132842979432E-01
      2 F   8 O     4.427449363184E-01  4.330015352613E-01  2.867157020576E-01
      3 F   8 O     4.427449363170E-01  6.699846473873E-02 -2.132842979432E-01
      4 F   8 O    -4.427449363156E-01 -4.330015352613E-01 -2.867157020559E-01
      5 T   8 O    -4.495014183095E-02  4.949680599699E-01 -1.971544618761E-01
      6 F   8 O     4.495014183234E-02 -5.031940030094E-03 -3.028455381231E-01
      7 F   8 O     4.495014183095E-02 -4.949680599699E-01  1.971544618761E-01
      8 F   8 O    -4.495014182956E-02  5.031940030094E-03  3.028455381248E-01
      9 T   7 N     2.892897240961E-01 -4.577171303748E-01 -1.606328997437E-01
     10 F   7 N    -2.892897240947E-01  4.228286962523E-02 -3.393671002554E-01
     11 F   7 N    -2.892897240961E-01  4.577171303748E-01  1.606328997437E-01
     12 F   7 N     2.892897240975E-01 -4.228286962523E-02  3.393671002572E-01
     13 T   6 C     3.517973313137E-01 -3.624307645301E-01 -6.387804409082E-02
     14 F   6 C    -3.517973313123E-01  1.375692354699E-01 -4.361219559083E-01
     15 F   6 C    -3.517973313137E-01  3.624307645301E-01  6.387804409082E-02
     16 F   6 C     3.517973313151E-01 -1.375692354699E-01  4.361219559101E-01
     17 T   6 C     2.628595019293E-01 -3.579341567931E-01  1.447673708729E-02
     18 F   6 C    -2.628595019279E-01  1.420658432069E-01  4.855232629136E-01
     19 F   6 C    -2.628595019293E-01  3.579341567931E-01 -1.447673708729E-02
     20 F   6 C     2.628595019307E-01 -1.420658432069E-01 -4.855232629118E-01
     21 T   6 C     3.342758666551E-01 -2.589429430672E-01  1.069179093288E-01
     22 F   6 C    -3.342758666537E-01  2.410570569328E-01  3.930820906720E-01
     23 F   6 C    -3.342758666551E-01  2.589429430672E-01 -1.069179093288E-01
     24 F   6 C     3.342758666565E-01 -2.410570569328E-01 -3.930820906703E-01
     25 T   6 C     4.968049833949E-01 -1.637166112758E-01  1.239774511743E-01
     26 F   6 C    -4.968049833935E-01  3.362833887242E-01  3.760225488266E-01
     27 F   6 C    -4.968049833949E-01  1.637166112758E-01 -1.239774511743E-01
     28 F   6 C     4.968049833962E-01 -3.362833887242E-01 -3.760225488248E-01
     29 T   6 C    -4.106900760858E-01 -1.709594635992E-01  4.731487456103E-02
     30 F   6 C     4.106900760872E-01  3.290405364008E-01  4.526851254398E-01
     31 F   6 C     4.106900760858E-01  1.709594635992E-01 -4.731487456103E-02
     32 F   6 C    -4.106900760844E-01 -3.290405364008E-01 -4.526851254381E-01
     33 T   6 C    -4.832111352500E-01 -2.688135145553E-01 -4.533685415506E-02
     34 F   6 C     4.832111352514E-01  2.311864854447E-01 -4.546631458441E-01
     35 F   6 C     4.832111352500E-01  2.688135145553E-01  4.533685415506E-02
     36 F   6 C    -4.832111352486E-01 -2.311864854447E-01  4.546631458458E-01
     37 T   6 C     1.021978084350E-01  4.808650338980E-01 -2.227191223243E-01
     38 F   6 C    -1.021978084336E-01 -1.913496610201E-02 -2.772808776749E-01
     39 F   6 C    -1.021978084350E-01 -4.808650338980E-01  2.227191223243E-01
     40 F   6 C     1.021978084364E-01  1.913496610201E-02  2.772808776766E-01
     41 T   6 C     8.254968056536E-02  3.916322697361E-01 -3.268577052604E-01
     42 F   6 C    -8.254968056397E-02 -1.083677302639E-01 -1.731422947387E-01
     43 F   6 C    -8.254968056536E-02 -3.916322697361E-01  3.268577052604E-01
     44 F   6 C     8.254968056675E-02  1.083677302639E-01  1.731422947405E-01
     45 T   1 H     1.380445002593E-01 -4.306513362705E-01  5.149081782027E-03
     46 F   1 H    -1.380445002579E-01  6.934866372953E-02  4.948509182189E-01
     47 F   1 H    -1.380445002593E-01  4.306513362705E-01 -5.149081782027E-03
     48 F   1 H     1.380445002607E-01 -6.934866372953E-02 -4.948509182171E-01
     49 T   1 H     2.619941988938E-01 -2.572288651055E-01  1.664992421610E-01
     50 F   1 H    -2.619941988924E-01  2.427711348945E-01  3.335007578399E-01
     51 F   1 H    -2.619941988938E-01  2.572288651055E-01 -1.664992421610E-01
     52 F   1 H     2.619941988952E-01 -2.427711348945E-01 -3.335007578382E-01
     53 T   1 H    -2.838054228580E-01 -9.861725110055E-02  5.822327719300E-02
     54 F   1 H     2.838054228594E-01  4.013827488994E-01  4.417767228079E-01
     55 F   1 H     2.838054228580E-01  9.861725110055E-02 -5.822327719300E-02
     56 F   1 H    -2.838054228566E-01 -4.013827488994E-01 -4.417767228061E-01
     57 T   1 H    -4.092797235979E-01 -2.724699565708E-01 -1.040438189561E-01
     58 F   1 H     4.092797235993E-01  2.275300434292E-01 -3.959561810430E-01
     59 F   1 H     4.092797235979E-01  2.724699565708E-01  1.040438189561E-01
     60 F   1 H    -4.092797235965E-01 -2.275300434292E-01  3.959561810448E-01
     61 T   1 H    -3.023988553038E-01 -2.729875623427E-02  2.345501553248E-01
     62 F   1 H     3.023988553052E-01  4.727012437657E-01  2.654498446761E-01
     63 F   1 H     3.023988553038E-01  2.729875623427E-02 -2.345501553248E-01
     64 F   1 H    -3.023988553024E-01 -4.727012437657E-01 -2.654498446743E-01
     65 T   1 H     3.962280423085E-01 -4.722003727704E-01 -1.923442933662E-01
     66 F   1 H    -3.962280423071E-01  2.779962722955E-02 -3.076557066329E-01
     67 F   1 H    -3.962280423085E-01  4.722003727704E-01  1.923442933662E-01
     68 F   1 H     3.962280423099E-01 -2.779962722955E-02  3.076557066347E-01
     69 T   1 H    -6.574064738466E-02  4.140437619826E-01 -4.027889735833E-01
     70 F   1 H     6.574064738605E-02 -8.595623801743E-02 -9.721102641581E-02
     71 F   1 H     6.574064738466E-02 -4.140437619826E-01  4.027889735833E-01
     72 F   1 H    -6.574064738327E-02  8.595623801743E-02  9.721102641757E-02
     73 T   1 H     2.091037574695E-01  4.099064428983E-01 -3.513292486251E-01
     74 F   1 H    -2.091037574681E-01 -9.009355710171E-02 -1.486707513740E-01
     75 F   1 H    -2.091037574695E-01 -4.099064428983E-01  3.513292486251E-01
     76 F   1 H     2.091037574709E-01  9.009355710171E-02  1.486707513758E-01
     77 T   1 H     8.041892730374E-02  2.764491794332E-01 -3.072061781919E-01
     78 F   1 H    -8.041892730235E-02 -2.235508205668E-01 -1.927938218072E-01
     79 F   1 H    -8.041892730374E-02 -2.764491794332E-01  3.072061781919E-01
     80 F   1 H     8.041892730513E-02  2.235508205668E-01  1.927938218090E-01

 T = ATOM BELONGING TO THE ASYMMETRIC UNIT

 ****    4 SYMMOPS - TRANSLATORS IN FRACTIONAL UNITS
 **** MATRICES AND TRANSLATORS IN THE CRYSTALLOGRAPHIC REFERENCE FRAME
   V INV                    ROTATION MATRICES                   TRANSLATORS
   1   1  1.00  0.00  0.00  0.00  1.00  0.00  0.00  0.00  1.00  0.00  0.00  0.00
   2   2 -1.00 -0.00 -0.00 -0.00  1.00 -0.00 -0.00 -0.00 -1.00  0.00  0.50  0.50
   3   3 -1.00 -0.00 -0.00 -0.00 -1.00  0.00 -0.00  0.00 -1.00  0.00  0.00  0.00
   4   4  1.00  0.00  0.00  0.00 -1.00  0.00  0.00  0.00  1.00  0.00  0.50  0.50

 DIRECT LATTICE VECTORS CARTESIAN COMPONENTS (ANGSTROM)
          X                    Y                    Z
   0.713060771127E+01   0.435085221115E-15   0.138234931719E-01
   0.654535575131E-18   0.919126447402E+01   0.109443125101E-17
  -0.558055310029E+01   0.769680548019E-15   0.113121643122E+02


 CARTESIAN COORDINATES - PRIMITIVE CELL
 *******************************************************************************
 *      ATOM          X(ANGSTROM)         Y(ANGSTROM)         Z(ANGSTROM)
 *******************************************************************************
    1     8 O     2.783322904112E+00 -6.158006087670E-01  2.420410235114E+00
    2     8 O     1.557008257018E+00  3.979831628243E+00  3.249495414168E+00
    3     8 O    -2.783322904112E+00  6.158006087670E-01 -2.420410235114E+00
    4     8 O    -1.557008257008E+00 -3.979831628243E+00 -3.249495414148E+00
    5     8 O     7.797091154960E-01  4.549382345376E+00 -2.230865035604E+00
    6     8 O     2.010567434654E+00 -4.624989163400E-02 -3.425217120486E+00
    7     8 O    -7.797091154960E-01 -4.549382345376E+00  2.230865035604E+00
    8     8 O    -2.010567434644E+00  4.624989163400E-02  3.425217120506E+00
    9     7 N     2.959231964104E+00 -4.206999199564E+00 -1.813106761320E+00
   10     7 N    -1.689554139540E-01  3.886330374460E-01 -3.842975394770E+00
   11     7 N    -2.959231964104E+00  4.206999199564E+00  1.813106761320E+00
   12     7 N     1.689554139640E-01 -3.886330374460E-01  3.842975394790E+00
   13     6 C     2.865003580461E+00 -3.331197010317E+00 -7.177358626900E-01
   14     6 C    -7.472703031100E-02  1.264435226693E+00 -4.938346293400E+00
   15     6 C    -2.865003580461E+00  3.331197010317E+00  7.177358626900E-01
   16     6 C     7.472703032100E-02 -1.264435226693E+00  4.938346293420E+00
   17     6 C     1.793559791403E+00 -3.289867499371E+00  1.673968651660E-01
   18     6 C     9.967167587470E-01  1.305764737639E+00 -5.823479021256E+00
   19     6 C    -1.793559791403E+00  3.289867499371E+00 -1.673968651660E-01
   20     6 C    -9.967167587370E-01 -1.305764737639E+00  5.823479021276E+00
   21     6 C     1.786929002081E+00 -2.380013073412E+00  1.214093818405E+00
   22     6 C     2.553402159049E+00  2.215619163598E+00  4.455811830877E+00
   23     6 C    -1.786929002081E+00  2.380013073412E+00 -1.214093818405E+00
   24     6 C    -2.553402159039E+00 -2.215619163598E+00 -4.455811830857E+00
   25     6 C     2.850658696076E+00 -1.504762673026E+00  1.409320878987E+00
   26     6 C     1.489672465054E+00  3.090869563984E+00  4.260584770295E+00
   27     6 C    -2.850658696076E+00  1.504762673026E+00 -1.409320878987E+00
   28     6 C    -1.489672465044E+00 -3.090869563984E+00 -4.260584770275E+00
   29     6 C    -3.192512993401E+00 -1.571333644277E+00  5.295564639830E-01
   30     6 C     4.022364432610E-01  3.024298592733E+00  5.126525692127E+00
   31     6 C     3.192512993401E+00  1.571333644277E+00 -5.295564639830E-01
   32     6 C    -4.022364432510E-01 -3.024298592733E+00 -5.126525692107E+00
   33     6 C    -3.192584325173E+00 -2.470736106469E+00 -5.195376094290E-01
   34     6 C    -1.147746835947E+00  2.124896130541E+00 -5.150368039833E+00
   35     6 C     3.192584325173E+00  2.470736106469E+00  5.195376094290E-01
   36     6 C     1.147746835957E+00 -2.124896130541E+00  5.150368039853E+00
   37     6 C     1.971628369482E+00  4.419757702865E+00 -2.518022576494E+00
   38     6 C     8.186481806680E-01 -1.758745341450E-01 -3.138059579596E+00
   39     6 C    -1.971628369482E+00 -4.419757702865E+00  2.518022576494E+00
   40     6 C    -8.186481806580E-01  1.758745341450E-01  3.138059579616E+00
   41     6 C     2.412676169247E+00  3.599595767705E+00 -3.696326943669E+00
   42     6 C     3.776003809030E-01 -9.960364693050E-01 -1.959755212421E+00
   43     6 C    -2.412676169247E+00 -3.599595767705E+00  3.696326943669E+00
   44     6 C    -3.776003808930E-01  9.960364693050E-01  1.959755212441E+00
   45     1 H     9.556064537450E-01 -3.958230327752E+00  6.015551638200E-02
   46     1 H     1.834670096405E+00  6.374019092580E-01 -5.716237672472E+00
   47     1 H    -9.556064537450E-01  3.958230327752E+00 -6.015551638200E-02
   48     1 H    -1.834670096395E+00 -6.374019092580E-01  5.716237672492E+00
   49     1 H     9.390199929030E-01 -2.364258529537E+00  1.887088460201E+00
   50     1 H     3.401311168227E+00  2.231373707473E+00  3.782817189081E+00
   51     1 H    -9.390199929030E-01  2.364258529537E+00 -1.887088460201E+00
   52     1 H    -3.401311168217E+00 -2.231373707473E+00 -3.782817189061E+00
   53     1 H    -2.348623226780E+00 -9.064172365660E-01  6.547080960770E-01
   54     1 H    -4.416533233600E-01  3.689215000444E+00  5.001374060033E+00
   55     1 H     2.348623226780E+00  9.064172365660E-01 -6.547080960770E-01
   56     1 H     4.416533233700E-01 -3.689215000444E+00 -5.001374060013E+00
   57     1 H    -2.337791096712E+00 -2.504343432067E+00 -1.182618451165E+00
   58     1 H    -2.002540064408E+00  2.091288804943E+00 -4.487287198097E+00
   59     1 H     2.337791096712E+00  2.504343432067E+00  1.182618451165E+00
   60     1 H     2.002540064418E+00 -2.091288804943E+00  4.487287198117E+00
   61     1 H    -3.465207205980E+00 -2.509100883610E-01  2.649089687975E+00
   62     1 H     6.749306558400E-01  4.344722148649E+00  3.006992468135E+00
   63     1 H     3.465207205980E+00  2.509100883610E-01 -2.649089687975E+00
   64     1 H    -6.749306558300E-01 -4.344722148649E+00 -3.006992468115E+00
   65     1 H    -3.231873434696E+00 -4.340118510864E+00 -2.184176488607E+00
   66     1 H    -1.108457726424E+00  2.555137261460E-01 -3.485729160655E+00
   67     1 H     3.231873434696E+00  4.340118510864E+00  2.184176488607E+00
   68     1 H     1.108457726434E+00 -2.555137261460E-01  3.485729160675E+00
   69     1 H     1.779014488108E+00  3.805585720200E+00 -4.557323817707E+00
   70     1 H     1.011262062042E+00 -7.900465168100E-01 -1.098758338383E+00
   71     1 H    -1.779014488108E+00 -3.805585720200E+00  4.557323817707E+00
   72     1 H    -1.011262062032E+00  7.900465168100E-01  1.098758338403E+00
   73     1 H     3.451648393105E+00  3.767558526283E+00 -3.971403643765E+00
   74     1 H    -6.613718429550E-01 -8.280737107270E-01 -1.684678512325E+00
   75     1 H    -3.451648393105E+00 -3.767558526283E+00  3.971403643765E+00
   76     1 H     6.613718429650E-01  8.280737107270E-01  1.684678512345E+00
   77     1 H     2.287816213301E+00  2.540917521796E+00 -3.474055094937E+00
   78     1 H     5.024603368490E-01 -2.054714715214E+00 -2.182027061153E+00
   79     1 H    -2.287816213301E+00 -2.540917521796E+00  3.474055094937E+00
   80     1 H    -5.024603368390E-01  2.054714715214E+00  2.182027061173E+00

 *******************************************************************************
 STARTING BASIS SET HANDLING 
 *******************************************************************************

 Loading internal basis set: DEF2-MSVP           

 Please cite in your publication:
 Fully Optimized Contracted Gaussian Basis Sets for Atoms Li to Kr. A. Schäfer, H. Horn and R. Ahlrichs; J. Chem. Phys. 97, 2571 (1992).                                                                                                                         
 S. Grimme, J. G. Brandenburg, C. Bannwarth, and A. Hansen, J. Chem. Phys., 143, 054107 (2015).                                                                                                                                                                  

 *******************************************************************************
 LOCAL ATOMIC FUNCTIONS BASIS SET
 *******************************************************************************
   ATOM   X(AU)   Y(AU)   Z(AU)  N. TYPE  EXPONENT  S COEF   P COEF   D/F/G COEF
 *******************************************************************************
   1 O    5.260  -1.164   4.574
                                  1 S  
                                         6.773E+03 1.727E-03 0.000E+00 0.000E+00
                                         1.017E+03 1.325E-02 0.000E+00 0.000E+00
                                         2.313E+02 6.603E-02 0.000E+00 0.000E+00
                                         6.501E+01 2.353E-01 0.000E+00 0.000E+00
                                         2.050E+01 5.498E-01 0.000E+00 0.000E+00
                                  2 S  
                                         6.716E+00 1.000E+00 0.000E+00 0.000E+00
                                  3 S  
                                         1.147E+00 1.000E+00 0.000E+00 0.000E+00
                                  4 S  
                                         3.342E-01 1.000E+00 0.000E+00 0.000E+00
                           5-     7 P  
                                         1.769E+01 0.000E+00 4.359E-02 0.000E+00
                                         3.854E+00 0.000E+00 2.318E-01 0.000E+00
                                         1.047E+00 0.000E+00 5.146E-01 0.000E+00
                           8-    10 P  
                                         2.759E-01 0.000E+00 1.000E+00 0.000E+00
                          11-    15 D  
                                         8.000E-01 0.000E+00 0.000E+00 1.000E+00
   2 O    2.942   7.521   6.141
   3 O   -5.260   1.164  -4.574
   4 O   -2.942  -7.521  -6.141
   5 O    1.473   8.597  -4.216
   6 O    3.799  -0.087  -6.473
   7 O   -1.473  -8.597   4.216
   8 O   -3.799   0.087   6.473
   9 N    5.592  -7.950  -3.426
                                121 S  
                                         5.072E+03 1.707E-03 0.000E+00 0.000E+00
                                         7.614E+02 1.309E-02 0.000E+00 0.000E+00
                                         1.732E+02 6.510E-02 0.000E+00 0.000E+00
                                         4.867E+01 2.305E-01 0.000E+00 0.000E+00
                                         1.533E+01 5.330E-01 0.000E+00 0.000E+00
                                122 S  
                                         5.019E+00 1.000E+00 0.000E+00 0.000E+00
                                123 S  
                                         8.355E-01 1.000E+00 0.000E+00 0.000E+00
                                124 S  
                                         2.463E-01 1.000E+00 0.000E+00 0.000E+00
                         125-   127 P  
                                         1.355E+01 0.000E+00 4.063E-02 0.000E+00
                                         2.918E+00 0.000E+00 2.209E-01 0.000E+00
                                         7.983E-01 0.000E+00 5.186E-01 0.000E+00
                         128-   130 P  
                                         2.190E-01 0.000E+00 1.000E+00 0.000E+00
                         131-   135 D  
                                         8.000E-01 0.000E+00 0.000E+00 1.000E+00
  10 N   -0.319   0.734  -7.262
  11 N   -5.592   7.950   3.426
  12 N    0.319  -0.734   7.262
  13 C    5.414  -6.295  -1.356
                                181 S  
                                         3.624E+03 1.634E-03 0.000E+00 0.000E+00
                                         5.440E+02 1.252E-02 0.000E+00 0.000E+00
                                         1.237E+02 6.211E-02 0.000E+00 0.000E+00
                                         3.476E+01 2.182E-01 0.000E+00 0.000E+00
                                         1.093E+01 4.980E-01 0.000E+00 0.000E+00
                                182 S  
                                         3.574E+00 1.000E+00 0.000E+00 0.000E+00
                                183 S  
                                         5.748E-01 1.000E+00 0.000E+00 0.000E+00
                                184 S  
                                         1.730E-01 1.000E+00 0.000E+00 0.000E+00
                         185-   187 P  
                                         9.443E+00 0.000E+00 3.790E-02 0.000E+00
                                         2.002E+00 0.000E+00 2.082E-01 0.000E+00
                                         5.463E-01 0.000E+00 5.047E-01 0.000E+00
                         188-   190 P  
                                         1.520E-01 0.000E+00 1.000E+00 0.000E+00
                         191-   195 D  
                                         8.000E-01 0.000E+00 0.000E+00 1.000E+00
  14 C   -0.141   2.389  -9.332
  15 C   -5.414   6.295   1.356
  16 C    0.141  -2.389   9.332
  17 C    3.389  -6.217   0.316
  18 C    1.884   2.468 -11.005
  19 C   -3.389   6.217  -0.316
  20 C   -1.884  -2.468  11.005
  21 C    3.377  -4.498   2.294
  22 C    4.825   4.187   8.420
  23 C   -3.377   4.498  -2.294
  24 C   -4.825  -4.187  -8.420
  25 C    5.387  -2.844   2.663
  26 C    2.815   5.841   8.051
  27 C   -5.387   2.844  -2.663
  28 C   -2.815  -5.841  -8.051
  29 C   -6.033  -2.969   1.001
  30 C    0.760   5.715   9.688
  31 C    6.033   2.969  -1.001
  32 C   -0.760  -5.715  -9.688
  33 C   -6.033  -4.669  -0.982
  34 C   -2.169   4.015  -9.733
  35 C    6.033   4.669   0.982
  36 C    2.169  -4.015   9.733
  37 C    3.726   8.352  -4.758
  38 C    1.547  -0.332  -5.930
  39 C   -3.726  -8.352   4.758
  40 C   -1.547   0.332   5.930
  41 C    4.559   6.802  -6.985
  42 C    0.714  -1.882  -3.703
  43 C   -4.559  -6.802   6.985
  44 C   -0.714   1.882   3.703
  45 H    1.806  -7.480   0.114
                                661 S  
                                         1.874E+01 1.968E-02 0.000E+00 0.000E+00
                                         2.826E+00 1.380E-01 0.000E+00 0.000E+00
                                         6.401E-01 4.783E-01 0.000E+00 0.000E+00
                                662 S  
                                         1.756E-01 1.000E+00 0.000E+00 0.000E+00
  46 H    3.467   1.205 -10.802
  47 H   -1.806   7.480  -0.114
  48 H   -3.467  -1.205  10.802
  49 H    1.774  -4.468   3.566
  50 H    6.428   4.217   7.148
  51 H   -1.774   4.468  -3.566
  52 H   -6.428  -4.217  -7.148
  53 H   -4.438  -1.713   1.237
  54 H   -0.835   6.972   9.451
  55 H    4.438   1.713  -1.237
  56 H    0.835  -6.972  -9.451
  57 H   -4.418  -4.733  -2.235
  58 H   -3.784   3.952  -8.480
  59 H    4.418   4.733   2.235
  60 H    3.784  -3.952   8.480
  61 H   -6.548  -0.474   5.006
  62 H    1.275   8.210   5.682
  63 H    6.548   0.474  -5.006
  64 H   -1.275  -8.210  -5.682
  65 H   -6.107  -8.202  -4.127
  66 H   -2.095   0.483  -6.587
  67 H    6.107   8.202   4.127
  68 H    2.095  -0.483   6.587
  69 H    3.362   7.192  -8.612
  70 H    1.911  -1.493  -2.076
  71 H   -3.362  -7.192   8.612
  72 H   -1.911   1.493   2.076
  73 H    6.523   7.120  -7.505
  74 H   -1.250  -1.565  -3.184
  75 H   -6.523  -7.120   7.505
  76 H    1.250   1.565   3.184
  77 H    4.323   4.802  -6.565
  78 H    0.950  -3.883  -4.123
  79 H   -4.323  -4.802   6.565
  80 H   -0.950   3.883   4.123

 *******************************************************************************
 FINISHED BASIS SET HANDLING 
 *******************************************************************************

 INFORMATION **** SET_MPP **** PCRYSTAL CALCULATION
 INFORMATION **** READM2 **** NEW DEFAULT: FOCK/KS MATRIX MIXING SET TO 30 %
 INFORMATION **** READM2 **** NEW DEFAULT: FULL DIRECT SCF MODE
 INFORMATION **** READM2 **** NEW DEFAULT: COULOMB BIPOLAR BUFFER SET TO 32 Mb
 INFORMATION **** READM2 **** NEW DEFAULT: EXCHANGE BIPOLAR BUFFER SET TO 32 Mb

 *******************************************************************************
 NEW DEFAULT: DFT INTEGRATION GRID INCREASED TO XLGRID
 NEW DEFAULT: DIIS ACCELERATOR ACTIVE
 USE KEYWORD NODIIS TO TURN IT OFF
 *******************************************************************************

 INFORMATION **** RDDFTP **** PBEh-3c calculation
 INFORMATION **** RDDFTP **** PBEh hybrid functional combined with D3 and gCP

PLEASE CITE:
(1) PBEh-3c Reference
 S. Grimme, J. G. Brandenburg, C. Bannwarth, and A. Hansen, 
 J. Chem. Phys. 143, 054107 (2015)
(2) DFT-D3 Reference
 S. Grimme, J. Antony, S. Ehrlich, and H. Krieg, J. Chem. Phys. 132, 154104 (2010)
(3) gCP Reference
 H. Kruse and S. Grimme J. Chem. Phys, 136, 154101 (2012)
 J. G. Brandenburg, M. Alessio, B. Civalleri, M. F. Peintinger
 T. Bredow, and S. Grimme, J. Phys. Chem. A, 117, 9282 (2013) 

 WARNING **** RDDFTP **** PBEh-3c has to be combined with def2-mSVP basis set
 WARNING **** RDDFTP **** Note: Harmonic frequencies are scaled by 0.95
 WARNING **** RDDFTP **** as recommended in original publication
 INFORMATION **** TOLDEE **** SCF TOL ON TOTAL ENERGY SET TO           9
 INFORMATION **** TOLINTEG **** COULOMB AND EXCHANGE SERIES TOLERANCES MODIFIED
 INFORMATION **** MAXCYCLE **** MAX NUMBER OF SCF CYCLES SET TO          30
 WARNING **** READM2 **** PROBABLE LOSS IN FREQCALC ACCURACY; SCF TOL LT          10
 *******************************************************************************
 N. OF ATOMS PER CELL        80  COULOMB OVERLAP TOL         (T1) 10**   -8
 NUMBER OF SHELLS           380  COULOMB PENETRATION TOL     (T2) 10**   -8
 NUMBER OF AO               732  EXCHANGE OVERLAP TOL        (T3) 10**   -8
 N. OF ELECTRONS PER CELL   320  EXCHANGE PSEUDO OVP (F(G))  (T4) 10**   -8
 CORE ELECTRONS PER CELL     88  EXCHANGE PSEUDO OVP (P(G))  (T5) 10**  -24
 N. OF SYMMETRY OPERATORS     4  POLE ORDER IN MONO ZONE                  4
 *******************************************************************************
 TYPE OF CALCULATION :  RESTRICTED CLOSED SHELL
 KOHN-SHAM HAMILTONIAN

 (EXCHANGE)[CORRELATION] FUNCTIONAL:(PBEh-3c)[PBEh-3c]


 HYBRID EXCHANGE - PERCENTAGE OF FOCK EXCHANGE    42.0000

 CAPPA:IS1  4;IS2  4;IS3  2; K PTS MONK NET  18; SYMMOPS:K SPACE   4;G SPACE   4

 *******************************************************************************
 MAX NUMBER OF SCF CYCLES      30  CONVERGENCE ON DELTAP        10**-19
 WEIGHT OF F(I) IN F(I+1)      50% CONVERGENCE ON ENERGY        10**- 9
 SHRINK. FACT.(MONKH.)    4  4  2  NUMBER OF K POINTS IN THE IBZ     18
 SHRINKING FACTOR(GILAT NET)    4  NUMBER OF K POINTS(GILAT NET)     18
 *******************************************************************************
 *** K POINTS COORDINATES (OBLIQUE COORDINATES IN UNITS OF IS =  4)
   1-R(  0  0  0)   2-C(  1  0  0)   3-R(  2  0  0)   4-C(  0  1  0)
   5-C(  1  1  0)   6-C(  2  1  0)   7-R(  0  2  0)   8-C(  1  2  0)
   9-R(  2  2  0)  10-R(  0  0  1)  11-C(  1  0  1)  12-R(  2  0  1)
  13-C(  0  1  1)  14-C(  1  1  1)  15-C(  2  1  1)  16-R(  0  2  1)
  17-C(  1  2  1)  18-R(  2  2  1)

 DIRECT LATTICE VECTORS COMPON. (A.U.)     RECIP. LATTICE VECTORS COMPON. (A.U.) 
        X            Y            Z              X            Y            Z
   13.4748957    0.0000000    0.0261226      0.4658427   -0.0000000    0.2298110
    0.0000000   17.3689727    0.0000000     -0.0000000    0.3617477   -0.0000000
  -10.5457170    0.0000000   21.3768925     -0.0005693   -0.0000000    0.2936433

 DISK SPACE FOR EIGENVECTORS (FTN 10)    15003072 REALS

 SYMMETRY ADAPTION OF THE BLOCH FUNCTIONS ENABLED
 TTTTTTTTTTTTTTTTTTTTTTTTTTTTTT gordsh1     TELAPSE        3.75 TCPU        2.24

 MATRIX SIZE: P(G) 2303524, F(G)  215314, P(G) IRR  292197, F(G) IRR   54618
 MAX G-VECTOR INDEX FOR 1- AND 2-ELECTRON INTEGRALS  95

 TTTTTTTTTTTTTTTTTTTTTTTTTTTTTT INPUT       TELAPSE        3.83 TCPU        2.32

 NEIGHBORS OF THE NON-EQUIVALENT ATOMS

 N = NUMBER OF NEIGHBORS AT DISTANCE R
    ATOM  N     R/ANG      R/AU   NEIGHBORS (ATOM LABELS AND CELL INDICES)
   1 O    1     0.9849     1.8612   61 H    1 0 0
   1 O    1     1.3480     2.5473   25 C    0 0 0
   1 O    1     2.0174     3.8123   68 H    0 0 0
   1 O    1     2.3581     4.4561   21 C    0 0 0
   1 O    1     2.4020     4.5392   29 C    1 0 0
   1 O    1     2.5967     4.9071   49 H    0 0 0

   5 O    1     1.2329     2.3298   37 C    0 0 0
   5 O    1     1.6753     3.1659   64 H    0 1 0
   5 O    1     2.2614     4.2734    9 N    0 1 0
   5 O    1     2.3909     4.5181   41 C    0 0 0
   5 O    1     2.3973     4.5303   45 H    0 1 0
   5 O    1     2.6024     4.9179   78 H    0 1 0

   9 N    1     1.0139     1.9160   65 H    1 0 0
   9 N    1     1.3383     2.5289   37 C    0-1 0
   9 N    1     1.4056     2.6562   13 C    0 0 0
   9 N    1     2.2614     4.2734    5 O    0-1 0
   9 N    1     2.3837     4.5045   33 C    1 0 0
   9 N    1     2.4005     4.5363   41 C    0-1 0

  13 C    1     1.3904     2.6274   17 C    0 0 0
  13 C    1     1.3917     2.6299   33 C    1 0 0
  13 C    1     1.4056     2.6562    9 N    0 0 0
  13 C    1     2.0486     3.8712   65 H    1 0 0
  13 C    1     2.1456     4.0546   57 H    1 0 0
  13 C    1     2.1550     4.0724   45 H    0 0 0

  17 C    1     1.0772     2.0356   45 H    0 0 0
  17 C    1     1.3869     2.6208   21 C    0 0 0
  17 C    1     1.3904     2.6274   13 C    0 0 0
  17 C    1     2.1317     4.0284   49 H    0 0 0
  17 C    1     2.3922     4.5207   33 C    1 0 0
  17 C    1     2.4179     4.5692   25 C    0 0 0

  21 C    1     1.0826     2.0459   49 H    0 0 0
  21 C    1     1.3869     2.6208   17 C    0 0 0
  21 C    1     1.3913     2.6292   25 C    0 0 0
  21 C    1     2.1245     4.0147   45 H    0 0 0
  21 C    1     2.3581     4.4561    1 O    0 0 0
  21 C    1     2.3940     4.5240   29 C    1 0 0

  25 C    1     1.3480     2.5473    1 O    0 0 0
  25 C    1     1.3913     2.6292   21 C    0 0 0
  25 C    1     1.3917     2.6299   29 C    1 0 0
  25 C    1     1.9513     3.6874   61 H    1 0 0
  25 C    1     2.1497     4.0624   49 H    0 0 0
  25 C    1     2.1533     4.0692   53 H    1 0 0

  29 C    1     1.0816     2.0440   53 H    0 0 0
  29 C    1     1.3819     2.6113   33 C    0 0 0
  29 C    1     1.3917     2.6299   25 C   -1 0 0
  29 C    1     2.1290     4.0232   57 H    0 0 0
  29 C    1     2.3940     4.5240   21 C   -1 0 0
  29 C    1     2.4020     4.5392    1 O   -1 0 0

  33 C    1     1.0823     2.0453   57 H    0 0 0
  33 C    1     1.3819     2.6113   29 C    0 0 0
  33 C    1     1.3917     2.6299   13 C   -1 0 0
  33 C    1     2.1303     4.0257   53 H    0 0 0
  33 C    1     2.3837     4.5045    9 N   -1 0 0
  33 C    1     2.3922     4.5207   17 C   -1 0 0

  37 C    1     1.2329     2.3298    5 O    0 0 0
  37 C    1     1.3383     2.5289    9 N    0 1 0
  37 C    1     1.5019     2.8381   41 C    0 0 0
  37 C    1     2.0052     3.7892   65 H    1 1 0
  37 C    1     2.1317     4.0283   77 H    0 0 0
  37 C    1     2.1385     4.0411   69 H    0 0 0

  41 C    1     1.0878     2.0557   73 H    0 0 0
  41 C    1     1.0887     2.0574   69 H    0 0 0
  41 C    1     1.0889     2.0578   77 H    0 0 0
  41 C    1     1.5019     2.8381   37 C    0 0 0
  41 C    1     2.3909     4.5181    5 O    0 0 0
  41 C    1     2.4005     4.5363    9 N    0 1 0

  45 H    1     1.0772     2.0356   17 C    0 0 0
  45 H    1     2.1245     4.0147   21 C    0 0 0
  45 H    1     2.1550     4.0724   13 C    0 0 0
  45 H    1     2.3005     4.3473   47 H    0-1 0
  45 H    1     2.3973     4.5303    5 O    0-1 0
  45 H    1     2.4246     4.5818   49 H    0 0 0

  49 H    1     1.0826     2.0459   21 C    0 0 0
  49 H    1     2.1317     4.0284   17 C    0 0 0
  49 H    1     2.1497     4.0624   25 C    0 0 0
  49 H    1     2.4246     4.5818   45 H    0 0 0
  49 H    1     2.5967     4.9071    1 O    0 0 0
  49 H    1     2.6516     5.0109   68 H    0 0 0

  53 H    1     1.0816     2.0440   29 C    0 0 0
  53 H    1     2.1303     4.0257   33 C    0 0 0
  53 H    1     2.1533     4.0692   25 C   -1 0 0
  53 H    1     2.2054     4.1676   72 H    0 0 0
  53 H    1     2.3778     4.4934   61 H    0 0 0
  53 H    1     2.4350     4.6015   57 H    0 0 0

  57 H    1     1.0823     2.0453   33 C    0 0 0
  57 H    1     2.1290     4.0232   29 C    0 0 0
  57 H    1     2.1456     4.0546   13 C   -1 0 0
  57 H    1     2.2743     4.2979   65 H    0 0 0
  57 H    1     2.4233     4.5794   74 H    0 0 0
  57 H    1     2.4350     4.6015   53 H    0 0 0

  61 H    1     0.9849     1.8612    1 O   -1 0 0
  61 H    1     1.6753     3.1659    8 O    0 0 0
  61 H    1     1.9513     3.6874   25 C   -1 0 0
  61 H    1     2.3778     4.4934   53 H    0 0 0
  61 H    1     2.5120     4.7471   29 C    0 0 0
  61 H    1     2.6861     5.0759   68 H   -1 0 0

  65 H    1     1.0139     1.9160    9 N   -1 0 0
  65 H    1     2.0052     3.7892   37 C   -1-1 0
  65 H    1     2.0174     3.8123    4 O    0 0 0
  65 H    1     2.0486     3.8712   13 C   -1 0 0
  65 H    1     2.1489     4.0609   73 H   -1-1 0
  65 H    1     2.2743     4.2979   57 H    0 0 0

  69 H    1     1.0887     2.0574   41 C    0 0 0
  69 H    1     1.7412     3.2904   77 H    0 0 0
  69 H    1     1.7727     3.3499   73 H    0 0 0
  69 H    1     2.1385     4.0411   37 C    0 0 0
  69 H    1     2.2054     4.1676   56 H    0 1 0
  69 H    1     2.6390     4.9870    5 O    0 0 0

  73 H    1     1.0878     2.0557   41 C    0 0 0
  73 H    1     1.7625     3.3307   77 H    0 0 0
  73 H    1     1.7727     3.3499   69 H    0 0 0
  73 H    1     2.1489     4.0609   65 H    1 1 0
  73 H    1     2.1744     4.1091   37 C    0 0 0
  73 H    1     2.4233     4.5794   58 H    1 0 0

  77 H    1     1.0889     2.0578   41 C    0 0 0
  77 H    1     1.7412     3.2904   69 H    0 0 0
  77 H    1     1.7625     3.3307   73 H    0 0 0
  77 H    1     2.1317     4.0283   37 C    0 0 0
  77 H    1     2.6024     4.9179    6 O    0 0 0
  77 H    1     2.7039     5.1096   63 H    0 0 0


 SYMMETRY ALLOWED INTERNAL DEGREE(S) OF FREEDOM:  60
 TTTTTTTTTTTTTTTTTTTTTTTTTTTTTT SYMM        TELAPSE        3.87 TCPU        2.35
 TTTTTTTTTTTTTTTTTTTTTTTTTTTTTT INT_SCREEN  TELAPSE        4.18 TCPU        2.67

 *******************************************************************************
 *                                                                             *
 *                                                                             *
 *         FFFFF  RRRR   EEEE   QQQ   U   U  EEEE  N   N   CCC  Y   Y          *
 *         F      R   R  E     Q   Q  U   U  E     NN  N  C      Y Y           *
 *         FFF    RRRR   EEEE  Q   Q  U   U  EEEE  N N N  C       Y            *
 *         F      R   R  E     Q  QQ  U   U  E     N  NN  C       Y            *
 *         F      R   R  EEEE   QQ Q   UUU   EEEE  N   N   CCC    Y            *
 *                                                                             *
 *                                                                             *
 * CALCULATION OF PHONON FREQUENCIES AT THE GAMMA POINT.                       *
 *                                                                             *
 * SYMMETRY IS EXPLOITED TO BUILD THE TOTAL HESSIAN MATRIX.                    *
 * (F. PASCALE PHD THESIS TURIN-PARIS 2002)                                    *
 *                                                                             *
 *******************************************************************************


 * INTENSITIES COMPUTED VIA THE BERRY PHASE APPROACH                           *
 *                                                                             *
 * REFERENCES TO BE QUOTED WHEN USING THIS MODULE:                             *
 *                                                                             *
 * F. Pascale, C.M. Zicovich-Wilson, F. Lopez, B. Civalleri                    *
 * R. Orlando, R. Dovesi                                                       *
 * The calculation of the vibration frequencies of crystalline                 *
 * compounds and its implementation in the CRYSTAL code                        *
 * J. Comput. Chem. 25 (2004) 888-897                                          *
 *                                                                             *
 * C.M. Zicovich-Wilson, F. Pascale, C. Roetti, V.R. Saunders,                 *
 * R. Orlando, R. Dovesi                                                       *
 * The calculation of the vibration frequencies of alpha-quartz:               *
 * the effect of hamiltonian and basis set                                     *
 * J. Comput. Chem. 25 (2004) 1873-1881                                        *
 *******************************************************************************



 ATOMS ISOTOPIC MASS (AMU) FOR FREQUENCY CALCULATION 

    1 O      15.9949    2 O      15.9949    3 O      15.9949    4 O      15.9949
    5 O      15.9949    6 O      15.9949    7 O      15.9949    8 O      15.9949
    9 N      14.0031   10 N      14.0031   11 N      14.0031   12 N      14.0031
   13 C      12.0000   14 C      12.0000   15 C      12.0000   16 C      12.0000
   17 C      12.0000   18 C      12.0000   19 C      12.0000   20 C      12.0000
   21 C      12.0000   22 C      12.0000   23 C      12.0000   24 C      12.0000
   25 C      12.0000   26 C      12.0000   27 C      12.0000   28 C      12.0000
   29 C      12.0000   30 C      12.0000   31 C      12.0000   32 C      12.0000
   33 C      12.0000   34 C      12.0000   35 C      12.0000   36 C      12.0000
   37 C      12.0000   38 C      12.0000   39 C      12.0000   40 C      12.0000
   41 C      12.0000   42 C      12.0000   43 C      12.0000   44 C      12.0000
   45 H       1.0078   46 H       1.0078   47 H       1.0078   48 H       1.0078
   49 H       1.0078   50 H       1.0078   51 H       1.0078   52 H       1.0078
   53 H       1.0078   54 H       1.0078   55 H       1.0078   56 H       1.0078
   57 H       1.0078   58 H       1.0078   59 H       1.0078   60 H       1.0078
   61 H       1.0078   62 H       1.0078   63 H       1.0078   64 H       1.0078
   65 H       1.0078   66 H       1.0078   67 H       1.0078   68 H       1.0078
   69 H       1.0078   70 H       1.0078   71 H       1.0078   72 H       1.0078
   73 H       1.0078   74 H       1.0078   75 H       1.0078   76 H       1.0078
   77 H       1.0078   78 H       1.0078   79 H       1.0078   80 H       1.0078

 INFORMATION CONCERNING THE SCF+GRADIENT CALCULATIONS REQUIRED FOR
 GENERATING FREQUENCIES. IN PRINCIPLE 3N+1 SCF + GRADIENT
 CALCULATIONS  ARE REQUIRED;
 FOR EACH OF THEM THE REMAINING POINT SYMMETRY IS INDICATED.
 POINT SYMMETRY PERMITS TO GENERATE GRADIENTS FOR DISPLACEMENT B 
 STARTING FROM THE GRADIENT GENERATED BY DISPLACEMENT A.

   N   LABEL SYMBOL DISPLACEMENT     SYM. 

   1     EQUILIBRIUM GEOMETRY            4

   2      1   O            DX           1
   3      1   O            DY           1
   4      1   O            DZ           1
   5      5   O            DX           1
   6      5   O            DY           1
   7      5   O            DZ           1
   8      9   N            DX           1
   9      9   N            DY           1
  10      9   N            DZ           1
  11     13   C            DX           1
  12     13   C            DY           1
  13     13   C            DZ           1
  14     17   C            DX           1
  15     17   C            DY           1
  16     17   C            DZ           1
  17     21   C            DX           1
  18     21   C            DY           1
  19     21   C            DZ           1
  20     25   C            DX           1
  21     25   C            DY           1
  22     25   C            DZ           1
  23     29   C            DX           1
  24     29   C            DY           1
  25     29   C            DZ           1
  26     33   C            DX           1
  27     33   C            DY           1
  28     33   C            DZ           1
  29     37   C            DX           1
  30     37   C            DY           1
  31     37   C            DZ           1
  32     41   C            DX           1
  33     41   C            DY           1
  34     41   C            DZ           1
  35     45   H            DX           1
  36     45   H            DY           1
  37     45   H            DZ           1
  38     49   H            DX           1
  39     49   H            DY           1
  40     49   H            DZ           1
  41     53   H            DX           1
  42     53   H            DY           1
  43     53   H            DZ           1
  44     57   H            DX           1
  45     57   H            DY           1
  46     57   H            DZ           1
  47     61   H            DX           1
  48     61   H            DY           1
  49     61   H            DZ           1
  50     65   H            DX           1
  51     65   H            DY           1
  52     65   H            DZ           1
  53     69   H            DX           1
  54     69   H            DY           1
  55     69   H            DZ           1
  56     73   H            DX           1
  57     73   H            DY           1
  58     73   H            DZ           1
  59     77   H            DX           1
  60     77   H            DY           1
  61     77   H            DZ           1
 USE OF RESIDUAL SYMMETRY AFTER DISPLACEMENT

 NUMERICAL GRADIENT COMPUTED WITH A SINGLE DISPLACEMENT (+DX) FOR EACH
 CARTESIAN COORDINATE WITH RESPECT TO THE EQUILIBRIUM CONFIGURATION
 DX=  0.003 ANGSTROM
 NUMBER OF IRREDUCIBLE ATOMS                    20
 NUMBER OF SCF+GRADIENT CALCULATIONS            61

  ATOM  SYMOP  ORDER
    1      1      1
    5      1      1
    9      1      1
   13      1      1
   17      1      1
   21      1      1
   25      1      1
   29      1      1
   33      1      1
   37      1      1
   41      1      1
   45      1      1
   49      1      1
   53      1      1
   57      1      1
   61      1      1
   65      1      1
   69      1      1
   73      1      1
   77      1      1

 ATOM  : IRREDUCIBLE ATOM
 SYMOP : NUMBER OF SYMMETRY OPERATORS THAT DOESN'T MOVE THE IRREDUCIBLE ATOM
 ORDER : MAXIMUM ORDER AMONG THE OPERATORS OF THE IRREDUCIBLE ATOM

 *******************************************************************************


 GCALCO - MAX INDICES DIRECT LATTICE VECTOR    20    14    11
 NO.OF VECTORS CREATED 6999 STARS 1868 RMAX   202.86872 BOHR

 CAPPA:IS1  4;IS2  4;IS3  2; K PTS MONK NET  18; SYMMOPS:K SPACE   4;G SPACE   4

 TTTTTTTTTTTTTTTTTTTTTTTTTTTTTT gordsh1     TELAPSE        4.21 TCPU        2.70

 MATRIX SIZE: P(G) 2303524, F(G)  215314, P(G) IRR  292197, F(G) IRR   54618
 MAX G-VECTOR INDEX FOR 1- AND 2-ELECTRON INTEGRALS  95

 TTTTTTTTTTTTTTTTTTTTTTTTTTTTTT INPUT       TELAPSE        4.23 TCPU        2.71

 SYMMETRY ALLOWED INTERNAL DEGREE(S) OF FREEDOM:  60
 TTTTTTTTTTTTTTTTTTTTTTTTTTTTTT SYMM        TELAPSE        4.25 TCPU        2.74
 TTTTTTTTTTTTTTTTTTTTTTTTTTTTTT INT_SCREEN  TELAPSE        4.27 TCPU        2.75
 INFORMATION **** EXCBUF **** EXCH. BIPO BUFFER: WORDS USED =     3920085

 DFT PARAMETERS

     ATOM       ELECTRONS   NET CHARGE   R(ANGSTROM)
   1   8  O       8.0000      0.0000     0.74000000
   9   7  N       7.0000      0.0000     0.74000000
  13   6  C       6.0000      0.0000     0.77000000
  45   1  H       1.0000      0.0000     1.11000000

 SIZE OF GRID=     987469
 TTTTTTTTTTTTTTTTTTTTTTTTTTTTTT MAKE_GRID2  TELAPSE        7.61 TCPU        6.09
 BECKE WEIGHT FUNCTION
 RADSAFE =     2.00
 TOLERANCES - DENSITY:10**- 6; POTENTIAL:10**- 9; GRID WGT:10**-14

 RADIAL INTEGRATION  - INTERVALS (POINTS,UPPER LIMIT):            1( 99,  4.0*R)

 ANGULAR INTEGRATION - INTERVALS (ACCURACY LEVEL [N. POINTS] UPPER LIMIT):
  1(  6[ 146]   0.2)  2( 11[ 302]   0.5)  3( 14[ 590]   0.9)  4( 18[1454]   3.5)
  5( 14[ 590]9999.0)
 TTTTTTTTTTTTTTTTTTTTTTTTTTTTTT INT_CALC    TELAPSE        7.66 TCPU        6.14

 *******************************************************************************
 F1 vol step-3 freq - PBEh-3c                                                    
 CRYSTAL - SCF - TYPE OF CALCULATION :  RESTRICTED CLOSED SHELL
 *******************************************************************************

 CAPPA:IS1  4;IS2  4;IS3  2; K PTS MONK NET  18; SYMMOPS:K SPACE   4;G SPACE   4

 TTTTTTTTTTTTTTTTTTTTTTTTTTTTTT SDIK        TELAPSE        7.93 TCPU        6.41

 AAAAAAAAAAAAAAAAAAAAAAAAAAAAAAAAAAAAAAAAAAAAAAAAAAAAAAAAAAAAAAAAAAAAAAAAAAAAAAA
         ATOMIC WAVEFUNCTION(S)


 NUCLEAR CHARGE  8.0  SYMMETRY SPECIES            S    P
 N. ELECTRONS    8.0  NUMBER OF PRIMITIVE GTOS    8    4
                      NUMBER OF CONTRACTED GTOS   4    2
                      NUMBER OF CLOSED SHELLS     2    0
                      OPEN SHELL OCCUPATION       0    4

  ZNUC SCFIT  TOTAL HF ENERGY   KINETIC ENERGY   VIRIAL THEOREM ACCURACY
   8.0  12   -7.477373220E+01  7.477365593E+01 -2.000001020E+00  3.8E-06

 NUCLEAR CHARGE  7.0  SYMMETRY SPECIES            S    P
 N. ELECTRONS    7.0  NUMBER OF PRIMITIVE GTOS    8    4
                      NUMBER OF CONTRACTED GTOS   4    2
                      NUMBER OF CLOSED SHELLS     2    0
                      OPEN SHELL OCCUPATION       0    3

  ZNUC SCFIT  TOTAL HF ENERGY   KINETIC ENERGY   VIRIAL THEOREM ACCURACY
   7.0   9   -5.437948210E+01  5.437948297E+01 -1.999999984E+00  1.2E-06

 NUCLEAR CHARGE  6.0  SYMMETRY SPECIES            S    P
 N. ELECTRONS    6.0  NUMBER OF PRIMITIVE GTOS    8    4
                      NUMBER OF CONTRACTED GTOS   4    2
                      NUMBER OF CLOSED SHELLS     2    0
                      OPEN SHELL OCCUPATION       0    2

  ZNUC SCFIT  TOTAL HF ENERGY   KINETIC ENERGY   VIRIAL THEOREM ACCURACY
   6.0   9   -3.767634636E+01  3.767630973E+01 -2.000000972E+00  4.2E-06

 NUCLEAR CHARGE  1.0  SYMMETRY SPECIES            S
 N. ELECTRONS    1.0  NUMBER OF PRIMITIVE GTOS    4
                      NUMBER OF CONTRACTED GTOS   2
                      NUMBER OF CLOSED SHELLS     0
                      OPEN SHELL OCCUPATION       1

  ZNUC SCFIT  TOTAL HF ENERGY   KINETIC ENERGY   VIRIAL THEOREM ACCURACY
   1.0   1   -4.977266687E-01  5.190767460E-01 -1.958869132E+00  2.2E-17

 AAAAAAAAAAAAAAAAAAAAAAAAAAAAAAAAAAAAAAAAAAAAAAAAAAAAAAAAAAAAAAAAAAAAAAAAAAAAAAA

 TTTTTTTTTTTTTTTTTTTTTTTTTTTTTT MOQGAD      TELAPSE        8.44 TCPU        6.80
 TTTTTTTTTTTTTTTTTTTTTTTTTTTTTT SHELLXN     TELAPSE       11.06 TCPU        9.42
 TTTTTTTTTTTTTTTTTTTTTTTTTTTTTT MONMO3      TELAPSE       11.64 TCPU       10.00
 NUMERICALLY INTEGRATED DENSITY    319.9998250809
 TTTTTTTTTTTTTTTTTTTTTTTTTTTTTT NUMDFT      TELAPSE       12.04 TCPU       10.40
 CYC   0 ETOT(AU) -2.070810472661E+03 DETOT -2.07E+03 tst  0.00E+00 PX  1.00E+00
 TTTTTTTTTTTTTTTTTTTTTTTTTTTTTT DIIS        TELAPSE       12.08 TCPU       10.43
 TTTTTTTTTTTTTTTTTTTTTTTTTTTTTT FDIK        TELAPSE       12.66 TCPU       11.02
 INSULATING STATE
 TOP OF VALENCE BANDS -    BAND    160; K    1; EIG -2.8032079E-01 AU
 BOTTOM OF VIRTUAL BANDS - BAND    161; K    7; EIG -1.2650288E-01 AU
 INDIRECT ENERGY BAND GAP:   4.1856 eV
 BOTTOM OF VIRTUAL BANDS - BAND    161; K    1; EIG -1.2146534E-01 AU
 TTTTTTTTTTTTTTTTTTTTTTTTTTTTTT PDIG        TELAPSE       13.02 TCPU       11.38
 TTTTTTTTTTTTTTTTTTTTTTTTTTTTTT MOQGAD      TELAPSE       13.02 TCPU       11.38
 TTTTTTTTTTTTTTTTTTTTTTTTTTTTTT SHELLXN     TELAPSE       15.76 TCPU       14.11
 TTTTTTTTTTTTTTTTTTTTTTTTTTTTTT MONMO3      TELAPSE       16.36 TCPU       14.71
 NUMERICALLY INTEGRATED DENSITY    319.9998495579
 TTTTTTTTTTTTTTTTTTTTTTTTTTTTTT NUMDFT      TELAPSE       16.62 TCPU       14.97
 CYC   1 ETOT(AU) -2.057252997560E+03 DETOT  1.36E+01 tst  0.00E+00 PX  1.00E+00
 TTTTTTTTTTTTTTTTTTTTTTTTTTTTTT DIIS        TELAPSE       16.65 TCPU       15.01
 DIIS TEST: 0.17411E+01 AT SCF   CYCLE   1 - MIX   50 %
 TTTTTTTTTTTTTTTTTTTTTTTTTTTTTT FDIK        TELAPSE       17.25 TCPU       15.58
 INSULATING STATE
 TOP OF VALENCE BANDS -    BAND    160; K   10; EIG -2.4771523E-01 AU
 TOP OF VALENCE BANDS -    BAND    160; K    1; EIG -2.4786852E-01 AU
 BOTTOM OF VIRTUAL BANDS - BAND    161; K   16; EIG -4.7810188E-02 AU
 INDIRECT ENERGY BAND GAP:   5.4397 eV
 BOTTOM OF VIRTUAL BANDS - BAND    161; K    1; EIG -4.6907448E-02 AU
 TTTTTTTTTTTTTTTTTTTTTTTTTTTTTT PDIG        TELAPSE       17.60 TCPU       15.93
 TTTTTTTTTTTTTTTTTTTTTTTTTTTTTT MOQGAD      TELAPSE       17.61 TCPU       15.94
 TTTTTTTTTTTTTTTTTTTTTTTTTTTTTT SHELLXN     TELAPSE       20.36 TCPU       18.66
 TTTTTTTTTTTTTTTTTTTTTTTTTTTTTT MONMO3      TELAPSE       20.95 TCPU       19.25
 NUMERICALLY INTEGRATED DENSITY    319.9998436215
 TTTTTTTTTTTTTTTTTTTTTTTTTTTTTT NUMDFT      TELAPSE       21.38 TCPU       19.68
 CYC   2 ETOT(AU) -2.057713112378E+03 DETOT -4.60E-01 tst  9.78E-04 PX  1.27E-01
 TTTTTTTTTTTTTTTTTTTTTTTTTTTTTT DIIS        TELAPSE       21.41 TCPU       19.71
 DIIS TEST: 0.13993E+00 AT SCF   CYCLE   2 - DIIS ACTIVE - HISTORY:     2 CYCLES
 TTTTTTTTTTTTTTTTTTTTTTTTTTTTTT FDIK        TELAPSE       22.03 TCPU       20.31
 INSULATING STATE
 TOP OF VALENCE BANDS -    BAND    160; K   10; EIG -2.3854724E-01 AU
 TOP OF VALENCE BANDS -    BAND    160; K    1; EIG -2.3868264E-01 AU
 BOTTOM OF VIRTUAL BANDS - BAND    161; K   16; EIG -5.8703069E-03 AU
 INDIRECT ENERGY BAND GAP:   6.3315 eV
 BOTTOM OF VIRTUAL BANDS - BAND    161; K    1; EIG -1.2587001E-03 AU
 TTTTTTTTTTTTTTTTTTTTTTTTTTTTTT PDIG        TELAPSE       22.39 TCPU       20.67
 TTTTTTTTTTTTTTTTTTTTTTTTTTTTTT MOQGAD      TELAPSE       22.39 TCPU       20.67
 TTTTTTTTTTTTTTTTTTTTTTTTTTTTTT SHELLXN     TELAPSE       25.13 TCPU       23.41
 TTTTTTTTTTTTTTTTTTTTTTTTTTTTTT MONMO3      TELAPSE       25.73 TCPU       24.01
 NUMERICALLY INTEGRATED DENSITY    319.9998369732
 TTTTTTTTTTTTTTTTTTTTTTTTTTTTTT NUMDFT      TELAPSE       26.24 TCPU       24.52
 CYC   3 ETOT(AU) -2.057735207060E+03 DETOT -2.21E-02 tst  2.07E-04 PX  4.16E-02
 TTTTTTTTTTTTTTTTTTTTTTTTTTTTTT DIIS        TELAPSE       26.27 TCPU       24.55
 DIIS TEST: 0.78109E-01 AT SCF   CYCLE   3 - DIIS ACTIVE - HISTORY:     3 CYCLES
 TTTTTTTTTTTTTTTTTTTTTTTTTTTTTT FDIK        TELAPSE       26.85 TCPU       25.13
 INSULATING STATE
 TOP OF VALENCE BANDS -    BAND    160; K   10; EIG -2.4848953E-01 AU
 TOP OF VALENCE BANDS -    BAND    160; K    1; EIG -2.4870828E-01 AU
 BOTTOM OF VIRTUAL BANDS - BAND    161; K   16; EIG -1.2543771E-02 AU
 INDIRECT ENERGY BAND GAP:   6.4204 eV
 BOTTOM OF VIRTUAL BANDS - BAND    161; K    1; EIG -7.2727475E-03 AU
 TTTTTTTTTTTTTTTTTTTTTTTTTTTTTT PDIG        TELAPSE       27.21 TCPU       25.49
 TTTTTTTTTTTTTTTTTTTTTTTTTTTTTT MOQGAD      TELAPSE       27.21 TCPU       25.49
 TTTTTTTTTTTTTTTTTTTTTTTTTTTTTT SHELLXN     TELAPSE       29.94 TCPU       28.21
 TTTTTTTTTTTTTTTTTTTTTTTTTTTTTT MONMO3      TELAPSE       30.55 TCPU       28.82
 NUMERICALLY INTEGRATED DENSITY    319.9998402213
 TTTTTTTTTTTTTTTTTTTTTTTTTTTTTT NUMDFT      TELAPSE       31.02 TCPU       29.29
 CYC   4 ETOT(AU) -2.057752870093E+03 DETOT -1.77E-02 tst  1.15E-04 PX  3.21E-02
 TTTTTTTTTTTTTTTTTTTTTTTTTTTTTT DIIS        TELAPSE       31.05 TCPU       29.32
 DIIS TEST: 0.89405E-02 AT SCF   CYCLE   4 - DIIS ACTIVE - HISTORY:     4 CYCLES
 TTTTTTTTTTTTTTTTTTTTTTTTTTTTTT FDIK        TELAPSE       31.64 TCPU       29.91
 INSULATING STATE
 TOP OF VALENCE BANDS -    BAND    160; K   10; EIG -2.4611754E-01 AU
 TOP OF VALENCE BANDS -    BAND    160; K    1; EIG -2.4631956E-01 AU
 BOTTOM OF VIRTUAL BANDS - BAND    161; K   16; EIG -1.0424284E-02 AU
 INDIRECT ENERGY BAND GAP:   6.4135 eV
 BOTTOM OF VIRTUAL BANDS - BAND    161; K    1; EIG -5.4763002E-03 AU
 TTTTTTTTTTTTTTTTTTTTTTTTTTTTTT PDIG        TELAPSE       32.00 TCPU       30.27
 TTTTTTTTTTTTTTTTTTTTTTTTTTTTTT MOQGAD      TELAPSE       32.00 TCPU       30.27
 TTTTTTTTTTTTTTTTTTTTTTTTTTTTTT SHELLXN     TELAPSE       34.73 TCPU       33.00
 TTTTTTTTTTTTTTTTTTTTTTTTTTTTTT MONMO3      TELAPSE       35.34 TCPU       33.61
 NUMERICALLY INTEGRATED DENSITY    319.9998394588
 TTTTTTTTTTTTTTTTTTTTTTTTTTTTTT NUMDFT      TELAPSE       35.81 TCPU       34.08
 CYC   5 ETOT(AU) -2.057754990061E+03 DETOT -2.12E-03 tst  9.10E-06 PX  8.11E-03
 TTTTTTTTTTTTTTTTTTTTTTTTTTTTTT DIIS        TELAPSE       35.84 TCPU       34.11
 DIIS TEST: 0.78278E-03 AT SCF   CYCLE   5 - DIIS ACTIVE - HISTORY:     5 CYCLES
 TTTTTTTTTTTTTTTTTTTTTTTTTTTTTT FDIK        TELAPSE       36.43 TCPU       34.70
 INSULATING STATE
 TOP OF VALENCE BANDS -    BAND    160; K   10; EIG -2.4581974E-01 AU
 TOP OF VALENCE BANDS -    BAND    160; K    1; EIG -2.4602684E-01 AU
 BOTTOM OF VIRTUAL BANDS - BAND    161; K   16; EIG -1.0166026E-02 AU
 INDIRECT ENERGY BAND GAP:   6.4125 eV
 BOTTOM OF VIRTUAL BANDS - BAND    161; K    1; EIG -5.0778485E-03 AU
 TTTTTTTTTTTTTTTTTTTTTTTTTTTTTT PDIG        TELAPSE       36.78 TCPU       35.05
 TTTTTTTTTTTTTTTTTTTTTTTTTTTTTT MOQGAD      TELAPSE       36.79 TCPU       35.05
 TTTTTTTTTTTTTTTTTTTTTTTTTTTTTT SHELLXN     TELAPSE       39.52 TCPU       37.78
 TTTTTTTTTTTTTTTTTTTTTTTTTTTTTT MONMO3      TELAPSE       40.13 TCPU       38.40
 NUMERICALLY INTEGRATED DENSITY    319.9998393483
 TTTTTTTTTTTTTTTTTTTTTTTTTTTTTT NUMDFT      TELAPSE       40.64 TCPU       38.90
 CYC   6 ETOT(AU) -2.057755167578E+03 DETOT -1.78E-04 tst  1.36E-06 PX  1.64E-03
 TTTTTTTTTTTTTTTTTTTTTTTTTTTTTT DIIS        TELAPSE       40.67 TCPU       38.93
 DIIS TEST: 0.47361E-04 AT SCF   CYCLE   6 - DIIS ACTIVE - HISTORY:     6 CYCLES
 TTTTTTTTTTTTTTTTTTTTTTTTTTTTTT FDIK        TELAPSE       41.26 TCPU       39.52
 INSULATING STATE
 TOP OF VALENCE BANDS -    BAND    160; K   10; EIG -2.4574924E-01 AU
 TOP OF VALENCE BANDS -    BAND    160; K    1; EIG -2.4595073E-01 AU
 BOTTOM OF VIRTUAL BANDS - BAND    161; K   16; EIG -1.0143102E-02 AU
 INDIRECT ENERGY BAND GAP:   6.4112 eV
 BOTTOM OF VIRTUAL BANDS - BAND    161; K    1; EIG -5.0607793E-03 AU
 TTTTTTTTTTTTTTTTTTTTTTTTTTTTTT PDIG        TELAPSE       41.61 TCPU       39.87
 TTTTTTTTTTTTTTTTTTTTTTTTTTTTTT MOQGAD      TELAPSE       41.62 TCPU       39.87
 TTTTTTTTTTTTTTTTTTTTTTTTTTTTTT SHELLXN     TELAPSE       44.34 TCPU       42.60
 TTTTTTTTTTTTTTTTTTTTTTTTTTTTTT MONMO3      TELAPSE       44.99 TCPU       43.24
 NUMERICALLY INTEGRATED DENSITY    319.9998393042
 TTTTTTTTTTTTTTTTTTTTTTTTTTTTTT NUMDFT      TELAPSE       45.50 TCPU       43.75
 CYC   7 ETOT(AU) -2.057755177541E+03 DETOT -9.96E-06 tst  2.05E-07 PX  4.86E-04
 TTTTTTTTTTTTTTTTTTTTTTTTTTTTTT DIIS        TELAPSE       45.53 TCPU       43.78
 DIIS TEST: 0.78356E-05 AT SCF   CYCLE   7 - DIIS ACTIVE - HISTORY:     7 CYCLES
 TTTTTTTTTTTTTTTTTTTTTTTTTTTTTT FDIK        TELAPSE       46.11 TCPU       44.37
 INSULATING STATE
 TOP OF VALENCE BANDS -    BAND    160; K   10; EIG -2.4578431E-01 AU
 TOP OF VALENCE BANDS -    BAND    160; K    1; EIG -2.4598832E-01 AU
 BOTTOM OF VIRTUAL BANDS - BAND    161; K   16; EIG -1.0147984E-02 AU
 INDIRECT ENERGY BAND GAP:   6.4120 eV
 BOTTOM OF VIRTUAL BANDS - BAND    161; K    1; EIG -5.0694924E-03 AU
 TTTTTTTTTTTTTTTTTTTTTTTTTTTTTT PDIG        TELAPSE       46.47 TCPU       44.72
 TTTTTTTTTTTTTTTTTTTTTTTTTTTTTT MOQGAD      TELAPSE       46.47 TCPU       44.72
 TTTTTTTTTTTTTTTTTTTTTTTTTTTTTT SHELLXN     TELAPSE       49.20 TCPU       47.45
 TTTTTTTTTTTTTTTTTTTTTTTTTTTTTT MONMO3      TELAPSE       49.81 TCPU       48.06
 NUMERICALLY INTEGRATED DENSITY    319.9998393073
 TTTTTTTTTTTTTTTTTTTTTTTTTTTTTT NUMDFT      TELAPSE       50.32 TCPU       48.57
 CYC   8 ETOT(AU) -2.057755179898E+03 DETOT -2.36E-06 tst  1.58E-08 PX  1.83E-04
 TTTTTTTTTTTTTTTTTTTTTTTTTTTTTT DIIS        TELAPSE       50.35 TCPU       48.60
 DIIS TEST: 0.29664E-06 AT SCF   CYCLE   8 - DIIS ACTIVE - HISTORY:     8 CYCLES
 TTTTTTTTTTTTTTTTTTTTTTTTTTTTTT FDIK        TELAPSE       50.94 TCPU       49.19
 INSULATING STATE
 TOP OF VALENCE BANDS -    BAND    160; K   10; EIG -2.4579484E-01 AU
 TOP OF VALENCE BANDS -    BAND    160; K    1; EIG -2.4599814E-01 AU
 BOTTOM OF VIRTUAL BANDS - BAND    161; K   16; EIG -1.0153938E-02 AU
 INDIRECT ENERGY BAND GAP:   6.4121 eV
 BOTTOM OF VIRTUAL BANDS - BAND    161; K    1; EIG -5.0740027E-03 AU
 TTTTTTTTTTTTTTTTTTTTTTTTTTTTTT PDIG        TELAPSE       51.30 TCPU       49.54
 TTTTTTTTTTTTTTTTTTTTTTTTTTTTTT MOQGAD      TELAPSE       51.30 TCPU       49.54
 TTTTTTTTTTTTTTTTTTTTTTTTTTTTTT SHELLXN     TELAPSE       54.10 TCPU       52.25
 TTTTTTTTTTTTTTTTTTTTTTTTTTTTTT MONMO3      TELAPSE       54.64 TCPU       52.79
 NUMERICALLY INTEGRATED DENSITY    319.9998393076
 TTTTTTTTTTTTTTTTTTTTTTTTTTTTTT NUMDFT      TELAPSE       55.15 TCPU       53.30
 CYC   9 ETOT(AU) -2.057755180160E+03 DETOT -2.62E-07 tst  1.34E-09 PX  4.92E-05
 TTTTTTTTTTTTTTTTTTTTTTTTTTTTTT DIIS        TELAPSE       55.20 TCPU       53.35
 DIIS TEST: 0.69487E-07 AT SCF   CYCLE   9 - DIIS ACTIVE - HISTORY:     9 CYCLES
 TTTTTTTTTTTTTTTTTTTTTTTTTTTTTT FDIK        TELAPSE       55.79 TCPU       53.93
 INSULATING STATE
 TOP OF VALENCE BANDS -    BAND    160; K   10; EIG -2.4579349E-01 AU
 TOP OF VALENCE BANDS -    BAND    160; K    1; EIG -2.4599711E-01 AU
 BOTTOM OF VIRTUAL BANDS - BAND    161; K   16; EIG -1.0158812E-02 AU
 INDIRECT ENERGY BAND GAP:   6.4119 eV
 BOTTOM OF VIRTUAL BANDS - BAND    161; K    1; EIG -5.0790187E-03 AU
 TTTTTTTTTTTTTTTTTTTTTTTTTTTTTT PDIG        TELAPSE       56.14 TCPU       54.29
 TTTTTTTTTTTTTTTTTTTTTTTTTTTTTT MOQGAD      TELAPSE       56.14 TCPU       54.29
 TTTTTTTTTTTTTTTTTTTTTTTTTTTTTT SHELLXN     TELAPSE       58.88 TCPU       57.03
 TTTTTTTTTTTTTTTTTTTTTTTTTTTTTT MONMO3      TELAPSE       59.49 TCPU       57.63
 NUMERICALLY INTEGRATED DENSITY    319.9998393068
 TTTTTTTTTTTTTTTTTTTTTTTTTTTTTT NUMDFT      TELAPSE       60.00 TCPU       58.14
 CYC  10 ETOT(AU) -2.057755180181E+03 DETOT -2.13E-08 tst  9.85E-11 PX  2.54E-05
 TTTTTTTTTTTTTTTTTTTTTTTTTTTTTT DIIS        TELAPSE       60.77 TCPU       58.92
 DIIS TEST: 0.54437E-08 AT SCF   CYCLE  10 - DIIS ACTIVE - HISTORY:    10 CYCLES
 TTTTTTTTTTTTTTTTTTTTTTTTTTTTTT FDIK        TELAPSE       61.36 TCPU       59.50
 INSULATING STATE
 TOP OF VALENCE BANDS -    BAND    160; K   10; EIG -2.4579340E-01 AU
 TOP OF VALENCE BANDS -    BAND    160; K    1; EIG -2.4599697E-01 AU
 BOTTOM OF VIRTUAL BANDS - BAND    161; K   16; EIG -1.0156737E-02 AU
 INDIRECT ENERGY BAND GAP:   6.4120 eV
 BOTTOM OF VIRTUAL BANDS - BAND    161; K    1; EIG -5.0770864E-03 AU
 TTTTTTTTTTTTTTTTTTTTTTTTTTTTTT PDIG        TELAPSE       61.71 TCPU       59.85
 TTTTTTTTTTTTTTTTTTTTTTTTTTTTTT MOQGAD      TELAPSE       61.72 TCPU       59.86
 TTTTTTTTTTTTTTTTTTTTTTTTTTTTTT SHELLXN     TELAPSE       64.47 TCPU       62.61
 TTTTTTTTTTTTTTTTTTTTTTTTTTTTTT MONMO3      TELAPSE       65.06 TCPU       63.20
 NUMERICALLY INTEGRATED DENSITY    319.9998393065
 TTTTTTTTTTTTTTTTTTTTTTTTTTTTTT NUMDFT      TELAPSE       65.57 TCPU       63.71
 CYC  11 ETOT(AU) -2.057755180197E+03 DETOT -1.56E-08 tst  1.14E-11 PX  5.81E-06
 TTTTTTTTTTTTTTTTTTTTTTTTTTTTTT DIIS        TELAPSE       65.60 TCPU       63.74
 DIIS TEST: 0.43075E-09 AT SCF   CYCLE  11 - DIIS ACTIVE - HISTORY:    11 CYCLES
 TTTTTTTTTTTTTTTTTTTTTTTTTTTTTT FDIK        TELAPSE       66.19 TCPU       64.32
 INSULATING STATE
 TOP OF VALENCE BANDS -    BAND    160; K   10; EIG -2.4579300E-01 AU
 TOP OF VALENCE BANDS -    BAND    160; K    1; EIG -2.4599660E-01 AU
 BOTTOM OF VIRTUAL BANDS - BAND    161; K   16; EIG -1.0156744E-02 AU
 INDIRECT ENERGY BAND GAP:   6.4120 eV
 BOTTOM OF VIRTUAL BANDS - BAND    161; K    1; EIG -5.0770287E-03 AU
 TTTTTTTTTTTTTTTTTTTTTTTTTTTTTT PDIG        TELAPSE       66.54 TCPU       64.68
 TTTTTTTTTTTTTTTTTTTTTTTTTTTTTT MOQGAD      TELAPSE       66.55 TCPU       64.68
 TTTTTTTTTTTTTTTTTTTTTTTTTTTTTT SHELLXN     TELAPSE       69.28 TCPU       67.41
 TTTTTTTTTTTTTTTTTTTTTTTTTTTTTT MONMO3      TELAPSE       69.89 TCPU       68.02
 NUMERICALLY INTEGRATED DENSITY    319.9998393067
 TTTTTTTTTTTTTTTTTTTTTTTTTTTTTT NUMDFT      TELAPSE       70.40 TCPU       68.53
 CYC  12 ETOT(AU) -2.057755180195E+03 DETOT  1.87E-09 tst  1.28E-12 PX  1.58E-06
 TTTTTTTTTTTTTTTTTTTTTTTTTTTTTT DIIS        TELAPSE       70.43 TCPU       68.56
 DIIS TEST: 0.37504E-10 AT SCF   CYCLE  12 - DIIS ACTIVE - HISTORY:    12 CYCLES
 TTTTTTTTTTTTTTTTTTTTTTTTTTTTTT FDIK        TELAPSE       71.02 TCPU       69.15
 INSULATING STATE
 TOP OF VALENCE BANDS -    BAND    160; K   10; EIG -2.4579287E-01 AU
 TOP OF VALENCE BANDS -    BAND    160; K    1; EIG -2.4599647E-01 AU
 BOTTOM OF VIRTUAL BANDS - BAND    161; K   16; EIG -1.0156572E-02 AU
 INDIRECT ENERGY BAND GAP:   6.4120 eV
 BOTTOM OF VIRTUAL BANDS - BAND    161; K    1; EIG -5.0768831E-03 AU
 TTTTTTTTTTTTTTTTTTTTTTTTTTTTTT PDIG        TELAPSE       71.37 TCPU       69.50
 TTTTTTTTTTTTTTTTTTTTTTTTTTTTTT MOQGAD      TELAPSE       71.38 TCPU       69.50
 TTTTTTTTTTTTTTTTTTTTTTTTTTTTTT SHELLXN     TELAPSE       74.11 TCPU       72.24
 TTTTTTTTTTTTTTTTTTTTTTTTTTTTTT MONMO3      TELAPSE       74.72 TCPU       72.84
 NUMERICALLY INTEGRATED DENSITY    319.9998393067
 TTTTTTTTTTTTTTTTTTTTTTTTTTTTTT NUMDFT      TELAPSE       75.23 TCPU       73.35
 CYC  13 ETOT(AU) -2.057755180195E+03 DETOT -2.86E-11 tst  1.48E-13 PX  4.48E-07
 TTTTTTTTTTTTTTTTTTTTTTTTTTTTTT DIIS        TELAPSE       75.28 TCPU       73.41
 DIIS TEST: 0.21161E-11 AT SCF   CYCLE  13 - DIIS ACTIVE - HISTORY:    13 CYCLES
 TTTTTTTTTTTTTTTTTTTTTTTTTTTTTT FDIK        TELAPSE       75.87 TCPU       73.99
 INSULATING STATE
[...]
Note: The following floating-point exceptions are signalling: IEEE_UNDERFLOW_FLAG IEEE_DENORMAL
Note: The following floating-point exceptions are signalling: IEEE_UNDERFLOW_FLAG IEEE_DENORMAL
Note: The following floating-point exceptions are signalling: IEEE_UNDERFLOW_FLAG IEEE_DENORMAL
Note: The following floating-point exceptions are signalling: IEEE_UNDERFLOW_FLAG IEEE_DENORMAL
Note: The following floating-point exceptions are signalling: IEEE_UNDERFLOW_FLAG IEEE_DENORMAL
Note: The following floating-point exceptions are signalling: IEEE_UNDERFLOW_FLAG IEEE_DENORMAL
Note: The following floating-point exceptions are signalling: IEEE_UNDERFLOW_FLAG IEEE_DENORMAL
Note: The following floating-point exceptions are signalling: IEEE_UNDERFLOW_FLAG IEEE_DENORMAL
Note: The following floating-point exceptions are signalling: IEEE_UNDERFLOW_FLAG IEEE_DENORMAL
Note: The following floating-point exceptions are signalling: IEEE_UNDERFLOW_FLAG IEEE_DENORMAL
Note: The following floating-point exceptions are signalling: IEEE_UNDERFLOW_FLAG IEEE_DENORMAL
Note: The following floating-point exceptions are signalling: IEEE_UNDERFLOW_FLAG IEEE_DENORMAL
Note: The following floating-point exceptions are signalling: IEEE_UNDERFLOW_FLAG IEEE_DENORMAL
Note: The following floating-point exceptions are signalling: IEEE_UNDERFLOW_FLAG IEEE_DENORMAL
Note: The following floating-point exceptions are signalling: IEEE_UNDERFLOW_FLAG IEEE_DENORMAL
Note: The following floating-point exceptions are signalling: IEEE_UNDERFLOW_FLAG IEEE_DENORMAL
Note: The following floating-point exceptions are signalling: IEEE_UNDERFLOW_FLAG IEEE_DENORMAL
Note: The following floating-point exceptions are signalling: IEEE_UNDERFLOW_FLAG IEEE_DENORMAL
Note: The following floating-point exceptions are signalling: IEEE_UNDERFLOW_FLAG IEEE_DENORMAL
Note: The following floating-point exceptions are signalling: IEEE_UNDERFLOW_FLAG IEEE_DENORMAL
Note: The following floating-point exceptions are signalling: IEEE_UNDERFLOW_FLAG IEEE_DENORMAL
Note: The following floating-point exceptions are signalling: IEEE_UNDERFLOW_FLAG IEEE_DENORMAL
Note: The following floating-point exceptions are signalling: IEEE_UNDERFLOW_FLAG IEEE_DENORMAL
Note: The following floating-point exceptions are signalling: IEEE_UNDERFLOW_FLAG IEEE_DENORMAL
Note: The following floating-point exceptions are signalling: IEEE_UNDERFLOW_FLAG IEEE_DENORMAL
Note: The following floating-point exceptions are signalling: IEEE_UNDERFLOW_FLAG IEEE_DENORMAL
Note: The following floating-point exceptions are signalling: IEEE_UNDERFLOW_FLAG IEEE_DENORMAL
Note: The following floating-point exceptions are signalling: IEEE_UNDERFLOW_FLAG IEEE_DENORMAL
Note: The following floating-point exceptions are signalling: IEEE_UNDERFLOW_FLAG IEEE_DENORMAL
Note: The following floating-point exceptions are signalling: IEEE_UNDERFLOW_FLAG IEEE_DENORMAL
Note: The following floating-point exceptions are signalling: IEEE_UNDERFLOW_FLAG IEEE_DENORMAL
Note: The following floating-point exceptions are signalling: IEEE_UNDERFLOW_FLAG IEEE_DENORMAL
Note: The following floating-point exceptions are signalling: IEEE_UNDERFLOW_FLAG IEEE_DENORMAL
Note: The following floating-point exceptions are signalling: IEEE_UNDERFLOW_FLAG IEEE_DENORMAL
Note: The following floating-point exceptions are signalling: IEEE_UNDERFLOW_FLAG IEEE_DENORMAL
Note: The following floating-point exceptions are signalling: IEEE_UNDERFLOW_FLAG IEEE_DENORMAL
Note: The following floating-point exceptions are signalling: IEEE_UNDERFLOW_FLAG IEEE_DENORMAL
Note: The following floating-point exceptions are signalling: IEEE_UNDERFLOW_FLAG IEEE_DENORMAL
Note: The following floating-point exceptions are signalling: IEEE_UNDERFLOW_FLAG IEEE_DENORMAL
Note: The following floating-point exceptions are signalling: IEEE_UNDERFLOW_FLAG IEEE_DENORMAL
Note: The following floating-point exceptions are signalling: IEEE_UNDERFLOW_FLAG IEEE_DENORMAL
Note: The following floating-point exceptions are signalling: IEEE_UNDERFLOW_FLAG IEEE_DENORMAL
Note: The following floating-point exceptions are signalling: IEEE_UNDERFLOW_FLAG IEEE_DENORMAL
Note: The following floating-point exceptions are signalling: IEEE_UNDERFLOW_FLAG IEEE_DENORMAL
Note: The following floating-point exceptions are signalling: IEEE_UNDERFLOW_FLAG IEEE_DENORMAL
Note: The following floating-point exceptions are signalling: IEEE_UNDERFLOW_FLAG IEEE_DENORMAL
Note: The following floating-point exceptions are signalling: IEEE_UNDERFLOW_FLAG IEEE_DENORMAL
Note: The following floating-point exceptions are signalling: IEEE_UNDERFLOW_FLAG IEEE_DENORMAL
Note: The following floating-point exceptions are signalling: IEEE_UNDERFLOW_FLAG IEEE_DENORMAL
Note: The following floating-point exceptions are signalling: IEEE_UNDERFLOW_FLAG IEEE_DENORMAL
Note: The following floating-point exceptions are signalling: IEEE_UNDERFLOW_FLAG IEEE_DENORMAL
Note: The following floating-point exceptions are signalling: IEEE_UNDERFLOW_FLAG IEEE_DENORMAL
Note: The following floating-point exceptions are signalling: IEEE_UNDERFLOW_FLAG IEEE_DENORMAL
Note: The following floating-point exceptions are signalling: IEEE_UNDERFLOW_FLAG IEEE_DENORMAL
Note: The following floating-point exceptions are signalling: IEEE_UNDERFLOW_FLAG IEEE_DENORMAL
Note: The following floating-point exceptions are signalling: IEEE_UNDERFLOW_FLAG IEEE_DENORMAL
Note: The following floating-point exceptions are signalling: IEEE_UNDERFLOW_FLAG IEEE_DENORMAL
Note: The following floating-point exceptions are signalling: IEEE_UNDERFLOW_FLAG IEEE_DENORMAL
Note: The following floating-point exceptions are signalling: IEEE_UNDERFLOW_FLAG IEEE_DENORMAL
Note: The following floating-point exceptions are signalling: IEEE_UNDERFLOW_FLAG IEEE_DENORMAL
Note: The following floating-point exceptions are signalling: IEEE_UNDERFLOW_FLAG IEEE_DENORMAL
Note: The following floating-point exceptions are signalling: IEEE_UNDERFLOW_FLAG IEEE_DENORMAL
Note: The following floating-point exceptions are signalling: IEEE_UNDERFLOW_FLAG IEEE_DENORMAL
Note: The following floating-point exceptions are signalling: IEEE_UNDERFLOW_FLAG IEEE_DENORMAL
Note: The following floating-point exceptions are signalling: IEEE_UNDERFLOW_FLAG IEEE_DENORMAL
Note: The following floating-point exceptions are signalling: IEEE_UNDERFLOW_FLAG IEEE_DENORMAL
Note: The following floating-point exceptions are signalling: IEEE_UNDERFLOW_FLAG IEEE_DENORMAL
Note: The following floating-point exceptions are signalling: IEEE_UNDERFLOW_FLAG IEEE_DENORMAL
Note: The following floating-point exceptions are signalling: IEEE_UNDERFLOW_FLAG IEEE_DENORMAL
Note: The following floating-point exceptions are signalling: IEEE_UNDERFLOW_FLAG IEEE_DENORMAL
Note: The following floating-point exceptions are signalling: IEEE_UNDERFLOW_FLAG IEEE_DENORMAL
Note: The following floating-point exceptions are signalling: IEEE_UNDERFLOW_FLAG IEEE_DENORMAL
Note: The following floating-point exceptions are signalling: IEEE_UNDERFLOW_FLAG IEEE_DENORMAL
Note: The following floating-point exceptions are signalling: IEEE_UNDERFLOW_FLAG IEEE_DENORMAL
Note: The following floating-point exceptions are signalling: IEEE_UNDERFLOW_FLAG IEEE_DENORMAL
Note: The following floating-point exceptions are signalling: IEEE_UNDERFLOW_FLAG IEEE_DENORMAL
Note: The following floating-point exceptions are signalling: IEEE_UNDERFLOW_FLAG IEEE_DENORMAL
Note: The following floating-point exceptions are signalling: IEEE_UNDERFLOW_FLAG IEEE_DENORMAL
Note: The following floating-point exceptions are signalling: IEEE_UNDERFLOW_FLAG IEEE_DENORMAL
Note: The following floating-point exceptions are signalling: IEEE_UNDERFLOW_FLAG IEEE_DENORMAL
Note: The following floating-point exceptions are signalling: IEEE_UNDERFLOW_FLAG IEEE_DENORMAL
Note: The following floating-point exceptions are signalling: IEEE_UNDERFLOW_FLAG IEEE_DENORMAL
Note: The following floating-point exceptions are signalling: IEEE_UNDERFLOW_FLAG IEEE_DENORMAL
Note: The following floating-point exceptions are signalling: IEEE_UNDERFLOW_FLAG IEEE_DENORMAL
Note: The following floating-point exceptions are signalling: IEEE_UNDERFLOW_FLAG IEEE_DENORMAL
Note: The following floating-point exceptions are signalling: IEEE_UNDERFLOW_FLAG IEEE_DENORMAL
Note: The following floating-point exceptions are signalling: IEEE_UNDERFLOW_FLAG IEEE_DENORMAL
Note: The following floating-point exceptions are signalling: IEEE_UNDERFLOW_FLAG IEEE_DENORMAL
Note: The following floating-point exceptions are signalling: IEEE_UNDERFLOW_FLAG IEEE_DENORMAL
Note: The following floating-point exceptions are signalling: IEEE_UNDERFLOW_FLAG IEEE_DENORMAL
Note: The following floating-point exceptions are signalling: IEEE_UNDERFLOW_FLAG IEEE_DENORMAL
Note: The following floating-point exceptions are signalling: IEEE_UNDERFLOW_FLAG IEEE_DENORMAL
Note: The following floating-point exceptions are signalling: IEEE_UNDERFLOW_FLAG IEEE_DENORMAL
Note: The following floating-point exceptions are signalling: IEEE_UNDERFLOW_FLAG IEEE_DENORMAL
Note: The following floating-point exceptions are signalling: IEEE_UNDERFLOW_FLAG IEEE_DENORMAL
Note: The following floating-point exceptions are signalling: IEEE_UNDERFLOW_FLAG IEEE_DENORMAL
Note: The following floating-point exceptions are signalling: IEEE_UNDERFLOW_FLAG IEEE_DENORMAL
Note: The following floating-point exceptions are signalling: IEEE_UNDERFLOW_FLAG IEEE_DENORMAL
Note: The following floating-point exceptions are signalling: IEEE_UNDERFLOW_FLAG IEEE_DENORMAL
Note: The following floating-point exceptions are signalling: IEEE_UNDERFLOW_FLAG IEEE_DENORMAL
Note: The following floating-point exceptions are signalling: IEEE_UNDERFLOW_FLAG IEEE_DENORMAL
Note: The following floating-point exceptions are signalling: IEEE_UNDERFLOW_FLAG IEEE_DENORMAL
Note: The following floating-point exceptions are signalling: IEEE_UNDERFLOW_FLAG IEEE_DENORMAL
Note: The following floating-point exceptions are signalling: IEEE_UNDERFLOW_FLAG IEEE_DENORMAL
Note: The following floating-point exceptions are signalling: IEEE_UNDERFLOW_FLAG IEEE_DENORMAL
Note: The following floating-point exceptions are signalling: IEEE_UNDERFLOW_FLAG IEEE_DENORMAL
Note: The following floating-point exceptions are signalling: IEEE_UNDERFLOW_FLAG IEEE_DENORMAL
Note: The following floating-point exceptions are signalling: IEEE_UNDERFLOW_FLAG IEEE_DENORMAL
Note: The following floating-point exceptions are signalling: IEEE_UNDERFLOW_FLAG IEEE_DENORMAL
Note: The following floating-point exceptions are signalling: IEEE_UNDERFLOW_FLAG IEEE_DENORMAL
Note: The following floating-point exceptions are signalling: IEEE_UNDERFLOW_FLAG IEEE_DENORMAL
Note: The following floating-point exceptions are signalling: IEEE_UNDERFLOW_FLAG IEEE_DENORMAL
Note: The following floating-point exceptions are signalling: IEEE_UNDERFLOW_FLAG IEEE_DENORMAL
Note: The following floating-point exceptions are signalling: IEEE_UNDERFLOW_FLAG IEEE_DENORMAL
Note: The following floating-point exceptions are signalling: IEEE_UNDERFLOW_FLAG IEEE_DENORMAL
Note: The following floating-point exceptions are signalling: IEEE_UNDERFLOW_FLAG IEEE_DENORMAL
Note: The following floating-point exceptions are signalling: IEEE_UNDERFLOW_FLAG IEEE_DENORMAL
Note: The following floating-point exceptions are signalling: IEEE_UNDERFLOW_FLAG IEEE_DENORMAL
Note: The following floating-point exceptions are signalling: IEEE_UNDERFLOW_FLAG IEEE_DENORMAL
Note: The following floating-point exceptions are signalling: IEEE_UNDERFLOW_FLAG IEEE_DENORMAL
Note: The following floating-point exceptions are signalling: IEEE_UNDERFLOW_FLAG IEEE_DENORMAL
Note: The following floating-point exceptions are signalling: IEEE_UNDERFLOW_FLAG IEEE_DENORMAL
Note: The following floating-point exceptions are signalling: IEEE_UNDERFLOW_FLAG IEEE_DENORMAL
Note: The following floating-point exceptions are signalling: IEEE_UNDERFLOW_FLAG IEEE_DENORMAL
Note: The following floating-point exceptions are signalling: IEEE_UNDERFLOW_FLAG IEEE_DENORMAL
Note: The following floating-point exceptions are signalling: IEEE_UNDERFLOW_FLAG IEEE_DENORMAL
Note: The following floating-point exceptions are signalling: IEEE_UNDERFLOW_FLAG IEEE_DENORMAL
Note: The following floating-point exceptions are signalling: IEEE_UNDERFLOW_FLAG IEEE_DENORMAL
Note: The following floating-point exceptions are signalling: IEEE_UNDERFLOW_FLAG IEEE_DENORMAL
Note: The following floating-point exceptions are signalling: IEEE_UNDERFLOW_FLAG IEEE_DENORMAL
Note: The following floating-point exceptions are signalling: IEEE_UNDERFLOW_FLAG IEEE_DENORMAL
Note: The following floating-point exceptions are signalling: IEEE_UNDERFLOW_FLAG IEEE_DENORMAL
Note: The following floating-point exceptions are signalling: IEEE_UNDERFLOW_FLAG IEEE_DENORMAL
Note: The following floating-point exceptions are signalling: IEEE_UNDERFLOW_FLAG IEEE_DENORMAL
Note: The following floating-point exceptions are signalling: IEEE_UNDERFLOW_FLAG IEEE_DENORMAL
Note: The following floating-point exceptions are signalling: IEEE_UNDERFLOW_FLAG IEEE_DENORMAL
Note: The following floating-point exceptions are signalling: IEEE_UNDERFLOW_FLAG IEEE_DENORMAL
Note: The following floating-point exceptions are signalling: IEEE_UNDERFLOW_FLAG IEEE_DENORMAL
Note: The following floating-point exceptions are signalling: IEEE_UNDERFLOW_FLAG IEEE_DENORMAL
Note: The following floating-point exceptions are signalling: IEEE_UNDERFLOW_FLAG IEEE_DENORMAL
Note: The following floating-point exceptions are signalling: IEEE_UNDERFLOW_FLAG IEEE_DENORMAL
Note: The following floating-point exceptions are signalling: IEEE_UNDERFLOW_FLAG IEEE_DENORMAL
Note: The following floating-point exceptions are signalling: IEEE_UNDERFLOW_FLAG IEEE_DENORMAL
Note: The following floating-point exceptions are signalling: IEEE_UNDERFLOW_FLAG IEEE_DENORMAL
Note: The following floating-point exceptions are signalling: IEEE_UNDERFLOW_FLAG IEEE_DENORMAL
Note: The following floating-point exceptions are signalling: IEEE_UNDERFLOW_FLAG IEEE_DENORMAL
Note: The following floating-point exceptions are signalling: IEEE_UNDERFLOW_FLAG IEEE_DENORMAL
Note: The following floating-point exceptions are signalling: IEEE_UNDERFLOW_FLAG IEEE_DENORMAL
Note: The following floating-point exceptions are signalling: IEEE_UNDERFLOW_FLAG IEEE_DENORMAL
Note: The following floating-point exceptions are signalling: IEEE_UNDERFLOW_FLAG IEEE_DENORMAL
Note: The following floating-point exceptions are signalling: IEEE_UNDERFLOW_FLAG IEEE_DENORMAL
Note: The following floating-point exceptions are signalling: IEEE_UNDERFLOW_FLAG IEEE_DENORMAL
Note: The following floating-point exceptions are signalling: IEEE_UNDERFLOW_FLAG IEEE_DENORMAL
Note: The following floating-point exceptions are signalling: IEEE_UNDERFLOW_FLAG IEEE_DENORMAL
Note: The following floating-point exceptions are signalling: IEEE_UNDERFLOW_FLAG IEEE_DENORMAL
Note: The following floating-point exceptions are signalling: IEEE_UNDERFLOW_FLAG IEEE_DENORMAL
Note: The following floating-point exceptions are signalling: IEEE_UNDERFLOW_FLAG IEEE_DENORMAL
Note: The following floating-point exceptions are signalling: IEEE_UNDERFLOW_FLAG IEEE_DENORMAL
Note: The following floating-point exceptions are signalling: IEEE_UNDERFLOW_FLAG IEEE_DENORMAL
Note: The following floating-point exceptions are signalling: IEEE_UNDERFLOW_FLAG IEEE_DENORMAL
Note: The following floating-point exceptions are signalling: IEEE_UNDERFLOW_FLAG IEEE_DENORMAL
Note: The following floating-point exceptions are signalling: IEEE_UNDERFLOW_FLAG IEEE_DENORMAL
Note: The following floating-point exceptions are signalling: IEEE_UNDERFLOW_FLAG IEEE_DENORMAL
Note: The following floating-point exceptions are signalling: IEEE_UNDERFLOW_FLAG IEEE_DENORMAL
Note: The following floating-point exceptions are signalling: IEEE_UNDERFLOW_FLAG IEEE_DENORMAL
Note: The following floating-point exceptions are signalling: IEEE_UNDERFLOW_FLAG IEEE_DENORMAL
Note: The following floating-point exceptions are signalling: IEEE_UNDERFLOW_FLAG IEEE_DENORMAL
Note: The following floating-point exceptions are signalling: IEEE_UNDERFLOW_FLAG IEEE_DENORMAL
Note: The following floating-point exceptions are signalling: IEEE_UNDERFLOW_FLAG IEEE_DENORMAL
Note: The following floating-point exceptions are signalling: IEEE_UNDERFLOW_FLAG IEEE_DENORMAL
Note: The following floating-point exceptions are signalling: IEEE_UNDERFLOW_FLAG IEEE_DENORMAL
Note: The following floating-point exceptions are signalling: IEEE_UNDERFLOW_FLAG IEEE_DENORMAL
Note: The following floating-point exceptions are signalling: IEEE_UNDERFLOW_FLAG IEEE_DENORMAL
Note: The following floating-point exceptions are signalling: IEEE_UNDERFLOW_FLAG IEEE_DENORMAL
Note: The following floating-point exceptions are signalling: IEEE_UNDERFLOW_FLAG IEEE_DENORMAL
Note: The following floating-point exceptions are signalling: IEEE_UNDERFLOW_FLAG IEEE_DENORMAL
Note: The following floating-point exceptions are signalling: IEEE_UNDERFLOW_FLAG IEEE_DENORMAL
Note: The following floating-point exceptions are signalling: IEEE_UNDERFLOW_FLAG IEEE_DENORMAL
Note: The following floating-point exceptions are signalling: IEEE_UNDERFLOW_FLAG IEEE_DENORMAL
Note: The following floating-point exceptions are signalling: IEEE_UNDERFLOW_FLAG IEEE_DENORMAL
Note: The following floating-point exceptions are signalling: IEEE_UNDERFLOW_FLAG IEEE_DENORMAL
Note: The following floating-point exceptions are signalling: IEEE_UNDERFLOW_FLAG IEEE_DENORMAL
Note: The following floating-point exceptions are signalling: IEEE_UNDERFLOW_FLAG IEEE_DENORMAL
Note: The following floating-point exceptions are signalling: IEEE_UNDERFLOW_FLAG IEEE_DENORMAL
Note: The following floating-point exceptions are signalling: IEEE_UNDERFLOW_FLAG IEEE_DENORMAL
Note: The following floating-point exceptions are signalling: IEEE_UNDERFLOW_FLAG IEEE_DENORMAL
Note: The following floating-point exceptions are signalling: IEEE_UNDERFLOW_FLAG IEEE_DENORMAL
Note: The following floating-point exceptions are signalling: IEEE_UNDERFLOW_FLAG IEEE_DENORMAL
Note: The following floating-point exceptions are signalling: IEEE_UNDERFLOW_FLAG IEEE_DENORMAL
Note: The following floating-point exceptions are signalling: IEEE_UNDERFLOW_FLAG IEEE_DENORMAL
Note: The following floating-point exceptions are signalling: IEEE_UNDERFLOW_FLAG IEEE_DENORMAL
Note: The following floating-point exceptions are signalling: IEEE_UNDERFLOW_FLAG IEEE_DENORMAL
Note: The following floating-point exceptions are signalling: IEEE_UNDERFLOW_FLAG IEEE_DENORMAL
Note: The following floating-point exceptions are signalling: IEEE_UNDERFLOW_FLAG IEEE_DENORMAL
Note: The following floating-point exceptions are signalling: IEEE_UNDERFLOW_FLAG IEEE_DENORMAL
Note: The following floating-point exceptions are signalling: IEEE_UNDERFLOW_FLAG IEEE_DENORMAL
Note: The following floating-point exceptions are signalling: IEEE_UNDERFLOW_FLAG IEEE_DENORMAL
Note: The following floating-point exceptions are signalling: IEEE_UNDERFLOW_FLAG IEEE_DENORMAL
Note: The following floating-point exceptions are signalling: IEEE_UNDERFLOW_FLAG IEEE_DENORMAL
Note: The following floating-point exceptions are signalling: IEEE_UNDERFLOW_FLAG IEEE_DENORMAL
Note: The following floating-point exceptions are signalling: IEEE_UNDERFLOW_FLAG IEEE_DENORMAL
Note: The following floating-point exceptions are signalling: IEEE_UNDERFLOW_FLAG IEEE_DENORMAL
Note: The following floating-point exceptions are signalling: IEEE_UNDERFLOW_FLAG IEEE_DENORMAL
Note: The following floating-point exceptions are signalling: IEEE_UNDERFLOW_FLAG IEEE_DENORMAL
Note: The following floating-point exceptions are signalling: IEEE_UNDERFLOW_FLAG IEEE_DENORMAL
Note: The following floating-point exceptions are signalling: IEEE_UNDERFLOW_FLAG IEEE_DENORMAL
Note: The following floating-point exceptions are signalling: IEEE_UNDERFLOW_FLAG IEEE_DENORMAL
Note: The following floating-point exceptions are signalling: IEEE_UNDERFLOW_FLAG IEEE_DENORMAL
