Lmod has detected the following error: The following module(s) are unknown:
"epcc-job-env"

Please check the spelling or version number. Also try "module spider ..."
It is also possible your cache file is out-of-date; it may help to try:
  $ module --ignore-cache load "epcc-job-env"

Also make sure that all modulefiles written in TCL start with the string
#%Module




Warning: You have enabled access to software packages installed
by external parties on ARCHER2 or those that are not fully-supported.
The ARCHER2 CSE service does not test these packages. The service desk
will make reasonable efforts to assist with questions on the use of
these packages but some issues may not be able to be resolved by the
service and they may direct you to seek help from external parties.


ln: failed to create symbolic link '/mnt/lustre/a2fs-work3/work/e89/e89/hyz20ic/pbeh3c/QHA-F1/f1-m1freq.out': File exists
         256 PROCESSORS WORKING

         
 *******************************************************************************
 *                                                                             *
 *                               CRYSTAL17                                     *
 *                      public : 1.0.2 - March 1st, 2018 STFC/Archer2 build    *
 *                       HTTP://WWW.CRYSTAL.UNITO.IT                           *
 *                                                                             *
 *                              MAIN AUTHORS                                   *
 *                                                                             *
 *  R. DOVESI(1,11), V.R. SAUNDERS(2), C. ROETTI(1,11), R. ORLANDO(1,11),      *
 *  C.M. ZICOVICH-WILSON(1,3), F. PASCALE(4), B. CIVALLERI(1,11),              *
 *  K. DOLL(5), N.M. HARRISON(2,6), I.J. BUSH(7), Ph. D'ARCO(8),               *
 *  M. LLUNELL(9), M. CAUSA'(10), Y. NOEL(8), L. MASCHIO(1,11), A. ERBA(1,11)  *
 *  M. RE'RAT(14), S. CASASSA(1,11)                                            *
 *                                                                             *
 *        CONTRIBUTIONS TO THE CODE HAVE ALSO BEEN GIVEN BY                    *
 *                                                                             *
 *  M. FERRABONE(1,11), M. DE LA PIERRE(1,11), M. FERRERO(1,11),               *
 *  J. BAIMA(1,11), E. ALBANESE(1,11), M.F. PEINTINGER(12), R. BAST(13),       *
 *  B. KIRTMAN(15), V. LACIVITA(1,11), R. DEMICHELIS(1,16)                     *
 *  G. BRANDEBURG(17), S. SALUSTRO(1,11), G. SANSONE(1,11)                     *
 *  M.T. RUGGIERO(18)                                                          *
 *                                                                             *
 * (1) THEORETICAL CHEMISTRY GROUP - UNIVERSITA' DI TORINO - TORINO (ITALY)    *
 * (2) COMPUTATIONAL SCIENCE & ENGINEERING DEPARTMENT - STFC DARESBURY (UK)    *
 * (3) UNIVERSIDAD AUTONOMA DEL ESTADO DE MORELOS - CUERNAVACA (MEXICO)        *
 * (4) UNIVERSITE' DE LORRAINE - NANCY (FRANCE)                                *
 * (5) UNIVERSITAET STUTTGART- STUTTGART (GERMANY)                             *
 * (6) IMPERIAL COLLEGE - LONDON (UK)                                          *
 * (7) OXFORD E-RESEARCH CENTRE - OXFORD (UK)                                  *
 * (8) UPMC - SORBONNE UNIVERSITES - PARIS (FRANCE)                            *
 * (9) UNIVERSIDAD DE BARCELONA - BARCELONA (SPAIN)                            *
 *(10) UNIVERSITA' DI NAPOLI "FEDERICO II" - NAPOLI (ITALY)                    *
 *(11) NIS - NANOSTRUCTURED INTERFACES AND SURFACES - TORINO (ITALY)           *
 *(12) MPI FUER CHEMISCHE ENERGIEKONVERSION - MUELHEIM AN DER RUHR (GERMANY)   *
 *(13) UNIVERSITY OF TROMSO - TROMSO (NORWAY)                                  *
 *(14) UNIVERSITE' DE PAU ET DES PAYS DE L'ADOUR - PAU (FRANCE)                *
 *(15) UNIVERSITY OF CALIFORNIA SANTA BARBARA - SANTA BARBARA (USA)            *
 *(16) CURTIN UNIVERSITY - PERTH (AUSTRALIA)                                   *
 *(17) UNIVERSITY COLLEGE LONDON - LONDON (UK)                                 *
 *(18) CAMBRIDGE UNIVERSITY - CAMBRIDGE (UK)                                   *
 *                                                                             *
 *******************************************************************************
 EEEEEEEEEE STARTING  DATE 06 03 2022 TIME 11:46:14.6
 F1 vol step-1 freq - PBEh-3c                                                    

 GEOMETRY INPUT FROM EXTERNAL FILE (FORTRAN UNIT 34)
 3D - CRYSTAL 

 *******************************************************************************
 LATTICE PARAMETERS  (ANGSTROMS AND DEGREES) - PRIMITIVE CELL
       A          B          C        ALPHA      BETA     GAMMA        VOLUME
    7.15809    9.25973   12.66909    90.00000 116.34044  90.00000    752.545570

 NUMBER OF IRREDUCIBLE ATOMS IN THE CELL:   20

 CARTESIAN COORDINATES (ANGSTROM) - IRREDUCIBLE ATOMS AND SYMMETRY RELATED

 AT.IRR.  AT  AT.N.          X                   Y                   Z
     1     1     8    2.780888208933E+00 -6.436788499210E-01  2.421240133728E+00
     1     2     8    1.565887756767E+00  3.986185695939E+00  3.256108608925E+00
     1     3     8   -2.780888208933E+00  6.436788499210E-01 -2.421240133728E+00
     1     4     8   -1.565887756767E+00 -3.986185695939E+00 -3.256108608945E+00
     5     5     8    7.810738053100E-01  4.607248434947E+00 -2.243391360117E+00
     5     6     8    2.030237513280E+00 -2.261611091300E-02 -3.433138613093E+00
     5     7     8   -7.810738053100E-01 -4.607248434947E+00  2.243391360117E+00
     5     8     8   -2.030237513280E+00  2.261611091300E-02  3.433138613073E+00
     9     9     7    2.961891910856E+00 -4.230497965014E+00 -1.818149436681E+00
     9    10     7   -1.505805922660E-01  3.993665808460E-01 -3.858380536529E+00
     9    11     7   -2.961891910856E+00  4.230497965014E+00  1.818149436681E+00
     9    12     7    1.505805922660E-01 -3.993665808460E-01  3.858380536509E+00
    13    13     6    2.867078508630E+00 -3.353710518508E+00 -7.229445391510E-01
    13    14     6   -5.576719004000E-02  1.276154027352E+00 -4.953585434059E+00
    13    15     6   -2.867078508630E+00  3.353710518508E+00  7.229445391510E-01
    13    16     6    5.576719004000E-02 -1.276154027352E+00  4.953585434039E+00
    17    17     6    1.797854028740E+00 -3.318697576137E+00  1.655589699210E-01
    17    18     6    1.013457289850E+00  1.311166969723E+00 -5.842088943131E+00
    17    19     6   -1.797854028740E+00  3.318697576137E+00 -1.655589699210E-01
    17    20     6   -1.013457289850E+00 -1.311166969723E+00  5.842088943111E+00
    21    21     6    1.789510433366E+00 -2.410584692911E+00  1.213902400344E+00
    21    22     6    2.557265532334E+00  2.219279852949E+00  4.463446342309E+00
    21    23     6   -1.789510433366E+00  2.410584692911E+00 -1.213902400344E+00
    21    24     6   -2.557265532334E+00 -2.219279852949E+00 -4.463446342329E+00
    25    25     6    2.849104675238E+00 -1.529597437341E+00  1.407266838814E+00
    25    26     6    1.497671290462E+00  3.100267108519E+00  4.270081903839E+00
    25    27     6   -2.849104675238E+00  1.529597437341E+00 -1.407266838814E+00
    25    28     6   -1.497671290462E+00 -3.100267108519E+00 -4.270081903859E+00
    29    29     6   -3.224584841226E+00 -1.588257868804E+00  5.358260163660E-01
    29    30     6    4.132735226360E-01  3.041606677056E+00  5.140703956824E+00
    29    31     6    3.224584841226E+00  1.588257868804E+00 -5.358260163660E-01
    29    32     6   -4.132735226360E-01 -3.041606677056E+00 -5.140703956844E+00
    33    33     6   -3.222624290256E+00 -2.486686039269E+00 -5.146381756010E-01
    33    34     6   -1.124151675444E+00  2.143178506591E+00 -5.162710567072E+00
    33    35     6    3.222624290256E+00  2.486686039269E+00  5.146381756010E-01
    33    36     6    1.124151675444E+00 -2.143178506591E+00  5.162710567052E+00
    37    37     6    1.972799723196E+00  4.468703299947E+00 -2.525690420133E+00
    37    38     6    8.385115953940E-01 -1.611612459130E-01 -3.150839553077E+00
    37    39     6   -1.972799723196E+00 -4.468703299947E+00  2.525690420133E+00
    37    40     6   -8.385115953940E-01  1.611612459130E-01  3.150839553057E+00
    41    41     6    2.413582438226E+00  3.639905790484E+00 -3.698662757061E+00
    41    42     6    3.977288803640E-01 -9.899587553760E-01 -1.977867216149E+00
    41    43     6   -2.413582438226E+00 -3.639905790484E+00  3.698662757061E+00
    41    44     6   -3.977288803640E-01  9.899587553760E-01  1.977867216129E+00
    45    45     1    9.633105160140E-01 -3.991819792136E+00  6.022899664200E-02
    45    46     1    1.848000802576E+00  6.380447537240E-01 -5.736758969852E+00
    45    47     1   -9.633105160140E-01  3.991819792136E+00 -6.022899664200E-02
    45    48     1   -1.848000802576E+00 -6.380447537240E-01  5.736758969832E+00
    49    49     1    9.439765701040E-01 -2.400592027885E+00  1.890167196534E+00
    49    50     1    3.402799395596E+00  2.229272517975E+00  3.787181546119E+00
    49    51     1   -9.439765701040E-01  2.400592027885E+00 -1.890167196534E+00
    49    52     1   -3.402799395596E+00 -2.229272517975E+00 -3.787181546139E+00
    53    53     1   -2.384414019809E+00 -9.180472702320E-01  6.588125989920E-01
    53    54     1   -4.268972987810E-01  3.711817275628E+00  5.017717374198E+00
    53    55     1    2.384414019809E+00  9.180472702320E-01 -6.588125989920E-01
    53    56     1    4.268972987810E-01 -3.711817275628E+00 -5.017717374218E+00
    57    57     1   -2.369857878694E+00 -2.513935058317E+00 -1.180936314530E+00
    57    58     1   -1.976918087006E+00  2.115929487543E+00 -4.496412428143E+00
    57    59     1    2.369857878694E+00  2.513935058317E+00  1.180936314530E+00
    57    60     1    1.976918087006E+00 -2.115929487543E+00  4.496412428123E+00
    61    61     1   -3.495644975871E+00 -2.775947313840E-01  2.660719345825E+00
    61    62     1    6.843336572810E-01  4.352269814476E+00  3.015810627365E+00
    61    63     1    3.495644975871E+00  2.775947313840E-01 -2.660719345825E+00
    61    64     1   -6.843336572810E-01 -4.352269814476E+00 -3.015810627385E+00
    65    65     1   -3.256586775264E+00 -4.367497685377E+00 -2.173439034338E+00
    65    66     1   -1.090189190436E+00  2.623668604830E-01 -3.503909708335E+00
    65    67     1    3.256586775264E+00  4.367497685377E+00  2.173439034338E+00
    65    68     1    1.090189190436E+00 -2.623668604830E-01  3.503909708315E+00
    69    69     1    1.778376479589E+00  3.838175927002E+00 -4.560451077474E+00
    69    70     1    1.032934839001E+00 -7.916886188580E-01 -1.116078895736E+00
    69    71     1   -1.778376479589E+00 -3.838175927002E+00  4.560451077474E+00
    69    72     1   -1.032934839001E+00  7.916886188580E-01  1.116078895716E+00
    73    73     1    3.452251469810E+00  3.806908254146E+00 -3.976278750956E+00
    73    74     1   -6.409401512200E-01 -8.229562917140E-01 -1.700251222254E+00
    73    75     1   -3.452251469810E+00 -3.806908254146E+00  3.976278750956E+00
    73    76     1    6.409401512200E-01  8.229562917140E-01  1.700251222234E+00
    77    77     1    2.291148893109E+00  2.582607494202E+00 -3.467588305883E+00
    77    78     1    5.201624254810E-01 -2.047257051658E+00 -2.208941667327E+00
    77    79     1   -2.291148893109E+00 -2.582607494202E+00  3.467588305883E+00
    77    80     1   -5.201624254810E-01  2.047257051658E+00  2.208941667307E+00

 SPACE  GROUP  N.                     :   14
 NUMBER OF SYMMETRY OPERATORS         :    4
 *******************************************************************************
 LATTICE PARAMETERS (ANGSTROMS AND DEGREES) - BOHR = 0.5291772083 ANGSTROM
 PRIMITIVE CELL - CENTRING CODE 1/0 VOLUME=   752.545570 - DENSITY  1.333 g/cm^3
         A              B              C           ALPHA      BETA       GAMMA 
     7.15808733     9.25972909    12.66909055    90.000000 116.340440  90.000000
 *******************************************************************************
 ATOMS IN THE ASYMMETRIC UNIT   20 - ATOMS IN THE UNIT CELL:   80
     ATOM                 X/A                 Y/B                 Z/C    
 *******************************************************************************
      1 T   8 O    -4.440154222595E-01 -6.951378852936E-02  2.132275282578E-01
      2 F   8 O     4.440154222588E-01  4.304862114706E-01  2.867724717413E-01
      3 F   8 O     4.440154222595E-01  6.951378852936E-02 -2.132275282578E-01
      4 F   8 O    -4.440154222602E-01 -4.304862114706E-01 -2.867724717430E-01
      5 T   8 O    -4.609485102297E-02  4.975575839542E-01 -1.975990287774E-01
      6 F   8 O     4.609485102228E-02 -2.442416045759E-03 -3.024009712235E-01
      7 F   8 O     4.609485102297E-02 -4.975575839542E-01  1.975990287774E-01
      8 F   8 O    -4.609485102366E-02  2.442416045759E-03  3.024009712217E-01
      9 T   7 N     2.879726655662E-01 -4.568705977367E-01 -1.601669707102E-01
     10 F   7 N    -2.879726655669E-01  4.312940226330E-02 -3.398330292907E-01
     11 F   7 N    -2.879726655662E-01  4.568705977367E-01  1.601669707102E-01
     12 F   7 N     2.879726655655E-01 -4.312940226330E-02  3.398330292890E-01
     13 T   6 C     3.504982190932E-01 -3.621823581758E-01 -6.370366401694E-02
     14 F   6 C    -3.504982190938E-01  1.378176418242E-01 -4.362963359839E-01
     15 F   6 C    -3.504982190932E-01  3.621823581758E-01  6.370366401694E-02
     16 F   6 C     3.504982190925E-01 -1.378176418242E-01  4.362963359822E-01
     17 T   6 C     2.626037984936E-01 -3.584011522653E-01  1.456382320982E-02
     18 F   6 C    -2.626037984943E-01  1.415988477347E-01  4.854361767893E-01
     19 F   6 C    -2.626037984936E-01  3.584011522653E-01 -1.456382320982E-02
     20 F   6 C     2.626037984929E-01 -1.415988477347E-01 -4.854361767911E-01
     21 T   6 C     3.339666290691E-01 -2.603299371972E-01  1.068988417569E-01
     22 F   6 C    -3.339666290698E-01  2.396700628028E-01  3.931011582422E-01
     23 F   6 C    -3.339666290691E-01  2.603299371972E-01 -1.068988417569E-01
     24 F   6 C     3.339666290684E-01 -2.396700628028E-01 -3.931011582440E-01
     25 T   6 C     4.953634972131E-01 -1.651881412717E-01  1.239191246194E-01
     26 F   6 C    -4.953634972138E-01  3.348118587283E-01  3.760808753797E-01
     27 F   6 C    -4.953634972131E-01  1.651881412717E-01 -1.239191246194E-01
     28 F   6 C     4.953634972124E-01 -3.348118587283E-01 -3.760808753815E-01
     29 T   6 C    -4.133853546159E-01 -1.715231464195E-01  4.722642936814E-02
     30 F   6 C     4.133853546152E-01  3.284768535805E-01  4.527735706310E-01
     31 F   6 C     4.133853546159E-01  1.715231464195E-01 -4.722642936814E-02
     32 F   6 C    -4.133853546166E-01 -3.284768535805E-01 -4.527735706327E-01
     33 T   6 C    -4.857865818853E-01 -2.685484655801E-01 -4.529531516701E-02
     34 F   6 C     4.857865818847E-01  2.314515344199E-01 -4.547046848339E-01
     35 F   6 C     4.857865818853E-01  2.685484655801E-01  4.529531516701E-02
     36 F   6 C    -4.857865818861E-01 -2.314515344199E-01  4.547046848321E-01
     37 T   6 C     1.008518388368E-01  4.825954685805E-01 -2.224750865814E-01
     38 F   6 C    -1.008518388375E-01 -1.740453141951E-02 -2.775249134195E-01
     39 F   6 C    -1.008518388368E-01 -4.825954685805E-01  2.224750865814E-01
     40 F   6 C     1.008518388361E-01  1.740453141951E-02  2.775249134177E-01
     41 T   6 C     8.127594844442E-02  3.930898792427E-01 -3.257914008019E-01
     42 F   6 C    -8.127594844511E-02 -1.069101207573E-01 -1.742085991990E-01
     43 F   6 C    -8.127594844442E-02 -3.930898792427E-01  3.257914008019E-01
     44 F   6 C     8.127594844373E-02  1.069101207573E-01  1.742085991972E-01
     45 T   1 H     1.387357732204E-01 -4.310946629859E-01  5.295083819803E-03
     46 F   1 H    -1.387357732211E-01  6.890533701407E-02  4.947049161793E-01
     47 F   1 H    -1.387357732204E-01  4.310946629859E-01 -5.295083819803E-03
     48 F   1 H     1.387357732197E-01 -6.890533701407E-02 -4.947049161811E-01
     49 T   1 H     2.626370119051E-01 -2.592507841327E-01  1.664707282699E-01
     50 F   1 H    -2.626370119058E-01  2.407492158673E-01  3.335292717292E-01
     51 F   1 H    -2.626370119051E-01  2.592507841327E-01 -1.664707282699E-01
     52 F   1 H     2.626370119045E-01 -2.407492158673E-01 -3.335292717310E-01
     53 T   1 H    -2.875096755606E-01 -9.914407442577E-02  5.805025308121E-02
     54 F   1 H     2.875096755599E-01  4.008559255742E-01  4.419497469179E-01
     55 F   1 H     2.875096755606E-01  9.914407442577E-02 -5.805025308121E-02
     56 F   1 H    -2.875096755613E-01 -4.008559255742E-01 -4.419497469197E-01
     57 T   1 H    -4.127570883685E-01 -2.714912103168E-01 -1.039894413668E-01
     58 F   1 H     4.127570883678E-01  2.285087896832E-01 -3.960105586340E-01
     59 F   1 H     4.127570883685E-01  2.714912103168E-01  1.039894413668E-01
     60 F   1 H    -4.127570883692E-01 -2.285087896832E-01  3.960105586323E-01
     61 T   1 H    -3.042426904338E-01 -2.997870981260E-02  2.343833700352E-01
     62 F   1 H     3.042426904331E-01  4.700212901874E-01  2.656166299639E-01
     63 F   1 H     3.042426904338E-01  2.997870981260E-02 -2.343833700352E-01
     64 F   1 H    -3.042426904345E-01 -4.700212901874E-01 -2.656166299656E-01
     65 T   1 H     3.947069082075E-01 -4.716658167983E-01 -1.913971606859E-01
     66 F   1 H    -3.947069082081E-01  2.833418320171E-02 -3.086028393149E-01
     67 F   1 H    -3.947069082075E-01  4.716658167983E-01  1.913971606859E-01
     68 F   1 H     3.947069082068E-01 -2.833418320171E-02  3.086028393132E-01
     69 T   1 H    -6.708043774751E-02  4.145019674964E-01 -4.016887231804E-01
     70 F   1 H     6.708043774682E-02 -8.549803250356E-02 -9.831127682048E-02
     71 F   1 H     6.708043774751E-02 -4.145019674964E-01  4.016887231804E-01
     72 F   1 H    -6.708043774820E-02  8.549803250356E-02  9.831127681872E-02
     73 T   1 H     2.071654696675E-01  4.111252301701E-01 -3.502534462506E-01
     74 F   1 H    -2.071654696682E-01 -8.887476982992E-02 -1.497465537503E-01
     75 F   1 H    -2.071654696675E-01 -4.111252301701E-01  3.502534462506E-01
     76 F   1 H     2.071654696668E-01  8.887476982992E-02  1.497465537485E-01
     77 T   1 H     8.015929966410E-02  2.789074570779E-01 -3.054378250658E-01
     78 F   1 H    -8.015929966479E-02 -2.210925429221E-01 -1.945621749351E-01
     79 F   1 H    -8.015929966410E-02 -2.789074570779E-01  3.054378250658E-01
     80 F   1 H     8.015929966340E-02  2.210925429221E-01  1.945621749333E-01

 T = ATOM BELONGING TO THE ASYMMETRIC UNIT
 *******************************************************************************
 * GEOMETRY EDITING - INPUT COORDINATES ARE GIVEN IN ANGSTROM         
 *******************************************************************************

 GEOMETRY NOW FULLY CONSISTENT WITH THE GROUP

 FRQFRQFRQFRQFRQFRQFRQFRQFRQFRQFRQFRQFRQFRQFRQFRQFRQFRQFRQFRQFRQFRQFRQFRQFRQFRQ

                       FREQUENCY CALCULATION

 INFORMATION **** INPFREQ **** FREQUENCY CALCULATION RESTART(DATA FROM FREQINFO.DAT)
 INFORMATION **** INPFREQ ****  PRINTING OF EIGENVECTORS
 INFORMATION **** INPFREQ **** NEW DEFAULT - IMPOSING ECKART CONDITIONS TO THE HESSIAN

 GCALCO - MAX INDICES DIRECT LATTICE VECTOR    20    14    11
 NO.OF VECTORS CREATED 6999 STARS 1868 RMAX   203.90102 BOHR

 GEOMETRY FOR WAVE FUNCTION - DIMENSIONALITY OF THE SYSTEM    3
 (NON PERIODIC DIRECTION: LATTICE PARAMETER FORMALLY SET TO 500)
 *******************************************************************************
 LATTICE PARAMETERS (ANGSTROMS AND DEGREES) - BOHR = 0.5291772083 ANGSTROM
 PRIMITIVE CELL - CENTRING CODE 1/0 VOLUME=   752.545570 - DENSITY  1.333 g/cm^3
         A              B              C           ALPHA      BETA       GAMMA 
     7.15808733     9.25972909    12.66909055    90.000000 116.340440  90.000000
 *******************************************************************************
 ATOMS IN THE ASYMMETRIC UNIT   20 - ATOMS IN THE UNIT CELL:   80
     ATOM                 X/A                 Y/B                 Z/C    
 *******************************************************************************
      1 T   8 O    -4.440154222595E-01 -6.951378852936E-02  2.132275282578E-01
      2 F   8 O     4.440154222588E-01  4.304862114706E-01  2.867724717413E-01
      3 F   8 O     4.440154222595E-01  6.951378852936E-02 -2.132275282578E-01
      4 F   8 O    -4.440154222602E-01 -4.304862114706E-01 -2.867724717431E-01
      5 T   8 O    -4.609485102297E-02  4.975575839542E-01 -1.975990287774E-01
      6 F   8 O     4.609485102228E-02 -2.442416045759E-03 -3.024009712235E-01
      7 F   8 O     4.609485102297E-02 -4.975575839542E-01  1.975990287774E-01
      8 F   8 O    -4.609485102366E-02  2.442416045759E-03  3.024009712217E-01
      9 T   7 N     2.879726655662E-01 -4.568705977367E-01 -1.601669707102E-01
     10 F   7 N    -2.879726655669E-01  4.312940226330E-02 -3.398330292907E-01
     11 F   7 N    -2.879726655662E-01  4.568705977367E-01  1.601669707102E-01
     12 F   7 N     2.879726655655E-01 -4.312940226330E-02  3.398330292890E-01
     13 T   6 C     3.504982190932E-01 -3.621823581758E-01 -6.370366401694E-02
     14 F   6 C    -3.504982190938E-01  1.378176418242E-01 -4.362963359839E-01
     15 F   6 C    -3.504982190932E-01  3.621823581758E-01  6.370366401694E-02
     16 F   6 C     3.504982190925E-01 -1.378176418242E-01  4.362963359822E-01
     17 T   6 C     2.626037984936E-01 -3.584011522653E-01  1.456382320982E-02
     18 F   6 C    -2.626037984943E-01  1.415988477347E-01  4.854361767893E-01
     19 F   6 C    -2.626037984936E-01  3.584011522653E-01 -1.456382320982E-02
     20 F   6 C     2.626037984929E-01 -1.415988477347E-01 -4.854361767911E-01
     21 T   6 C     3.339666290691E-01 -2.603299371972E-01  1.068988417569E-01
     22 F   6 C    -3.339666290698E-01  2.396700628028E-01  3.931011582423E-01
     23 F   6 C    -3.339666290691E-01  2.603299371972E-01 -1.068988417569E-01
     24 F   6 C     3.339666290684E-01 -2.396700628028E-01 -3.931011582440E-01
     25 T   6 C     4.953634972131E-01 -1.651881412717E-01  1.239191246194E-01
     26 F   6 C    -4.953634972138E-01  3.348118587283E-01  3.760808753797E-01
     27 F   6 C    -4.953634972131E-01  1.651881412717E-01 -1.239191246194E-01
     28 F   6 C     4.953634972124E-01 -3.348118587283E-01 -3.760808753815E-01
     29 T   6 C    -4.133853546159E-01 -1.715231464195E-01  4.722642936814E-02
     30 F   6 C     4.133853546152E-01  3.284768535805E-01  4.527735706310E-01
     31 F   6 C     4.133853546159E-01  1.715231464195E-01 -4.722642936814E-02
     32 F   6 C    -4.133853546166E-01 -3.284768535805E-01 -4.527735706327E-01
     33 T   6 C    -4.857865818853E-01 -2.685484655801E-01 -4.529531516701E-02
     34 F   6 C     4.857865818847E-01  2.314515344199E-01 -4.547046848339E-01
     35 F   6 C     4.857865818853E-01  2.685484655801E-01  4.529531516701E-02
     36 F   6 C    -4.857865818860E-01 -2.314515344199E-01  4.547046848321E-01
     37 T   6 C     1.008518388368E-01  4.825954685805E-01 -2.224750865814E-01
     38 F   6 C    -1.008518388375E-01 -1.740453141951E-02 -2.775249134195E-01
     39 F   6 C    -1.008518388368E-01 -4.825954685805E-01  2.224750865814E-01
     40 F   6 C     1.008518388361E-01  1.740453141951E-02  2.775249134177E-01
     41 T   6 C     8.127594844442E-02  3.930898792427E-01 -3.257914008019E-01
     42 F   6 C    -8.127594844511E-02 -1.069101207573E-01 -1.742085991990E-01
     43 F   6 C    -8.127594844442E-02 -3.930898792427E-01  3.257914008019E-01
     44 F   6 C     8.127594844373E-02  1.069101207573E-01  1.742085991972E-01
     45 T   1 H     1.387357732204E-01 -4.310946629859E-01  5.295083819803E-03
     46 F   1 H    -1.387357732211E-01  6.890533701407E-02  4.947049161793E-01
     47 F   1 H    -1.387357732204E-01  4.310946629859E-01 -5.295083819803E-03
     48 F   1 H     1.387357732197E-01 -6.890533701407E-02 -4.947049161811E-01
     49 T   1 H     2.626370119051E-01 -2.592507841327E-01  1.664707282699E-01
     50 F   1 H    -2.626370119058E-01  2.407492158673E-01  3.335292717292E-01
     51 F   1 H    -2.626370119051E-01  2.592507841327E-01 -1.664707282699E-01
     52 F   1 H     2.626370119044E-01 -2.407492158673E-01 -3.335292717310E-01
     53 T   1 H    -2.875096755606E-01 -9.914407442577E-02  5.805025308121E-02
     54 F   1 H     2.875096755599E-01  4.008559255742E-01  4.419497469179E-01
     55 F   1 H     2.875096755606E-01  9.914407442577E-02 -5.805025308121E-02
     56 F   1 H    -2.875096755613E-01 -4.008559255742E-01 -4.419497469197E-01
     57 T   1 H    -4.127570883685E-01 -2.714912103168E-01 -1.039894413668E-01
     58 F   1 H     4.127570883678E-01  2.285087896832E-01 -3.960105586340E-01
     59 F   1 H     4.127570883685E-01  2.714912103168E-01  1.039894413668E-01
     60 F   1 H    -4.127570883692E-01 -2.285087896832E-01  3.960105586323E-01
     61 T   1 H    -3.042426904338E-01 -2.997870981260E-02  2.343833700352E-01
     62 F   1 H     3.042426904331E-01  4.700212901874E-01  2.656166299639E-01
     63 F   1 H     3.042426904338E-01  2.997870981260E-02 -2.343833700352E-01
     64 F   1 H    -3.042426904345E-01 -4.700212901874E-01 -2.656166299656E-01
     65 T   1 H     3.947069082075E-01 -4.716658167983E-01 -1.913971606859E-01
     66 F   1 H    -3.947069082082E-01  2.833418320171E-02 -3.086028393149E-01
     67 F   1 H    -3.947069082075E-01  4.716658167983E-01  1.913971606859E-01
     68 F   1 H     3.947069082068E-01 -2.833418320171E-02  3.086028393132E-01
     69 T   1 H    -6.708043774751E-02  4.145019674964E-01 -4.016887231804E-01
     70 F   1 H     6.708043774682E-02 -8.549803250356E-02 -9.831127682048E-02
     71 F   1 H     6.708043774751E-02 -4.145019674964E-01  4.016887231804E-01
     72 F   1 H    -6.708043774820E-02  8.549803250356E-02  9.831127681872E-02
     73 T   1 H     2.071654696675E-01  4.111252301701E-01 -3.502534462506E-01
     74 F   1 H    -2.071654696682E-01 -8.887476982992E-02 -1.497465537503E-01
     75 F   1 H    -2.071654696675E-01 -4.111252301701E-01  3.502534462506E-01
     76 F   1 H     2.071654696668E-01  8.887476982992E-02  1.497465537485E-01
     77 T   1 H     8.015929966410E-02  2.789074570779E-01 -3.054378250658E-01
     78 F   1 H    -8.015929966479E-02 -2.210925429221E-01 -1.945621749351E-01
     79 F   1 H    -8.015929966410E-02 -2.789074570779E-01  3.054378250658E-01
     80 F   1 H     8.015929966340E-02  2.210925429221E-01  1.945621749333E-01

 T = ATOM BELONGING TO THE ASYMMETRIC UNIT

 ****    4 SYMMOPS - TRANSLATORS IN FRACTIONAL UNITS
 **** MATRICES AND TRANSLATORS IN THE CRYSTALLOGRAPHIC REFERENCE FRAME
   V INV                    ROTATION MATRICES                   TRANSLATORS
   1   1  1.00  0.00  0.00  0.00  1.00  0.00  0.00  0.00  1.00  0.00  0.00  0.00
   2   2 -1.00  0.00 -0.00 -0.00  1.00 -0.00  0.00 -0.00 -1.00 -0.00  0.50  0.50
   3   3 -1.00  0.00 -0.00  0.00 -1.00  0.00  0.00 -0.00 -1.00  0.00  0.00  0.00
   4   4  1.00 -0.00  0.00  0.00 -1.00  0.00 -0.00  0.00  1.00 -0.00  0.50  0.50

 DIRECT LATTICE VECTORS CARTESIAN COMPONENTS (ANGSTROM)
          X                    Y                    Z
   0.715808728429E+01   0.437546218633E-15   0.818769463179E-03
  -0.369598087422E-18   0.925972909172E+01   0.651306289687E-19
  -0.562262263718E+01   0.774772422319E-15   0.113530599464E+02


 CARTESIAN COORDINATES - PRIMITIVE CELL
 *******************************************************************************
 *      ATOM          X(ANGSTROM)         Y(ANGSTROM)         Z(ANGSTROM)
 *******************************************************************************
    1     8 O     2.780888208933E+00 -6.436788499210E-01  2.421240133728E+00
    2     8 O     1.565887756767E+00  3.986185695939E+00  3.256108608925E+00
    3     8 O    -2.780888208933E+00  6.436788499210E-01 -2.421240133728E+00
    4     8 O    -1.565887756767E+00 -3.986185695939E+00 -3.256108608945E+00
    5     8 O     7.810738053100E-01  4.607248434947E+00 -2.243391360117E+00
    6     8 O     2.030237513280E+00 -2.261611091300E-02 -3.433138613093E+00
    7     8 O    -7.810738053100E-01 -4.607248434947E+00  2.243391360117E+00
    8     8 O    -2.030237513280E+00  2.261611091300E-02  3.433138613073E+00
    9     7 N     2.961891910856E+00 -4.230497965014E+00 -1.818149436681E+00
   10     7 N    -1.505805922660E-01  3.993665808460E-01 -3.858380536529E+00
   11     7 N    -2.961891910856E+00  4.230497965014E+00  1.818149436681E+00
   12     7 N     1.505805922660E-01 -3.993665808460E-01  3.858380536509E+00
   13     6 C     2.867078508630E+00 -3.353710518508E+00 -7.229445391510E-01
   14     6 C    -5.576719004000E-02  1.276154027352E+00 -4.953585434059E+00
   15     6 C    -2.867078508630E+00  3.353710518508E+00  7.229445391510E-01
   16     6 C     5.576719004000E-02 -1.276154027352E+00  4.953585434039E+00
   17     6 C     1.797854028740E+00 -3.318697576137E+00  1.655589699210E-01
   18     6 C     1.013457289850E+00  1.311166969723E+00 -5.842088943131E+00
   19     6 C    -1.797854028740E+00  3.318697576137E+00 -1.655589699210E-01
   20     6 C    -1.013457289850E+00 -1.311166969723E+00  5.842088943111E+00
   21     6 C     1.789510433366E+00 -2.410584692911E+00  1.213902400344E+00
   22     6 C     2.557265532334E+00  2.219279852949E+00  4.463446342309E+00
   23     6 C    -1.789510433366E+00  2.410584692911E+00 -1.213902400344E+00
   24     6 C    -2.557265532334E+00 -2.219279852949E+00 -4.463446342329E+00
   25     6 C     2.849104675238E+00 -1.529597437341E+00  1.407266838814E+00
   26     6 C     1.497671290462E+00  3.100267108519E+00  4.270081903839E+00
   27     6 C    -2.849104675238E+00  1.529597437341E+00 -1.407266838814E+00
   28     6 C    -1.497671290462E+00 -3.100267108519E+00 -4.270081903859E+00
   29     6 C    -3.224584841226E+00 -1.588257868804E+00  5.358260163660E-01
   30     6 C     4.132735226360E-01  3.041606677056E+00  5.140703956824E+00
   31     6 C     3.224584841226E+00  1.588257868804E+00 -5.358260163660E-01
   32     6 C    -4.132735226360E-01 -3.041606677056E+00 -5.140703956844E+00
   33     6 C    -3.222624290256E+00 -2.486686039269E+00 -5.146381756010E-01
   34     6 C    -1.124151675444E+00  2.143178506591E+00 -5.162710567072E+00
   35     6 C     3.222624290256E+00  2.486686039269E+00  5.146381756010E-01
   36     6 C     1.124151675444E+00 -2.143178506591E+00  5.162710567052E+00
   37     6 C     1.972799723196E+00  4.468703299947E+00 -2.525690420133E+00
   38     6 C     8.385115953940E-01 -1.611612459130E-01 -3.150839553077E+00
   39     6 C    -1.972799723196E+00 -4.468703299947E+00  2.525690420133E+00
   40     6 C    -8.385115953940E-01  1.611612459130E-01  3.150839553057E+00
   41     6 C     2.413582438226E+00  3.639905790484E+00 -3.698662757061E+00
   42     6 C     3.977288803640E-01 -9.899587553760E-01 -1.977867216149E+00
   43     6 C    -2.413582438226E+00 -3.639905790484E+00  3.698662757061E+00
   44     6 C    -3.977288803640E-01  9.899587553760E-01  1.977867216129E+00
   45     1 H     9.633105160140E-01 -3.991819792136E+00  6.022899664200E-02
   46     1 H     1.848000802576E+00  6.380447537240E-01 -5.736758969852E+00
   47     1 H    -9.633105160140E-01  3.991819792136E+00 -6.022899664200E-02
   48     1 H    -1.848000802576E+00 -6.380447537240E-01  5.736758969832E+00
   49     1 H     9.439765701040E-01 -2.400592027885E+00  1.890167196534E+00
   50     1 H     3.402799395596E+00  2.229272517975E+00  3.787181546119E+00
   51     1 H    -9.439765701040E-01  2.400592027885E+00 -1.890167196534E+00
   52     1 H    -3.402799395596E+00 -2.229272517975E+00 -3.787181546139E+00
   53     1 H    -2.384414019809E+00 -9.180472702320E-01  6.588125989920E-01
   54     1 H    -4.268972987810E-01  3.711817275628E+00  5.017717374198E+00
   55     1 H     2.384414019809E+00  9.180472702320E-01 -6.588125989920E-01
   56     1 H     4.268972987810E-01 -3.711817275628E+00 -5.017717374218E+00
   57     1 H    -2.369857878694E+00 -2.513935058317E+00 -1.180936314530E+00
   58     1 H    -1.976918087006E+00  2.115929487543E+00 -4.496412428143E+00
   59     1 H     2.369857878694E+00  2.513935058317E+00  1.180936314530E+00
   60     1 H     1.976918087006E+00 -2.115929487543E+00  4.496412428123E+00
   61     1 H    -3.495644975871E+00 -2.775947313840E-01  2.660719345825E+00
   62     1 H     6.843336572810E-01  4.352269814476E+00  3.015810627365E+00
   63     1 H     3.495644975871E+00  2.775947313840E-01 -2.660719345825E+00
   64     1 H    -6.843336572810E-01 -4.352269814476E+00 -3.015810627385E+00
   65     1 H    -3.256586775264E+00 -4.367497685377E+00 -2.173439034338E+00
   66     1 H    -1.090189190436E+00  2.623668604830E-01 -3.503909708335E+00
   67     1 H     3.256586775264E+00  4.367497685377E+00  2.173439034338E+00
   68     1 H     1.090189190436E+00 -2.623668604830E-01  3.503909708315E+00
   69     1 H     1.778376479589E+00  3.838175927002E+00 -4.560451077474E+00
   70     1 H     1.032934839001E+00 -7.916886188580E-01 -1.116078895736E+00
   71     1 H    -1.778376479589E+00 -3.838175927002E+00  4.560451077474E+00
   72     1 H    -1.032934839001E+00  7.916886188580E-01  1.116078895716E+00
   73     1 H     3.452251469810E+00  3.806908254146E+00 -3.976278750956E+00
   74     1 H    -6.409401512200E-01 -8.229562917140E-01 -1.700251222254E+00
   75     1 H    -3.452251469810E+00 -3.806908254146E+00  3.976278750956E+00
   76     1 H     6.409401512200E-01  8.229562917140E-01  1.700251222234E+00
   77     1 H     2.291148893109E+00  2.582607494202E+00 -3.467588305883E+00
   78     1 H     5.201624254810E-01 -2.047257051658E+00 -2.208941667327E+00
   79     1 H    -2.291148893109E+00 -2.582607494202E+00  3.467588305883E+00
   80     1 H    -5.201624254810E-01  2.047257051658E+00  2.208941667307E+00

 *******************************************************************************
 STARTING BASIS SET HANDLING 
 *******************************************************************************

 Loading internal basis set: DEF2-MSVP           

 Please cite in your publication:
 Fully Optimized Contracted Gaussian Basis Sets for Atoms Li to Kr. A. Schäfer, H. Horn and R. Ahlrichs; J. Chem. Phys. 97, 2571 (1992).                                                                                                                         
 S. Grimme, J. G. Brandenburg, C. Bannwarth, and A. Hansen, J. Chem. Phys., 143, 054107 (2015).                                                                                                                                                                  

 *******************************************************************************
 LOCAL ATOMIC FUNCTIONS BASIS SET
 *******************************************************************************
   ATOM   X(AU)   Y(AU)   Z(AU)  N. TYPE  EXPONENT  S COEF   P COEF   D/F/G COEF
 *******************************************************************************
   1 O    5.255  -1.216   4.575
                                  1 S  
                                         6.773E+03 1.727E-03 0.000E+00 0.000E+00
                                         1.017E+03 1.325E-02 0.000E+00 0.000E+00
                                         2.313E+02 6.603E-02 0.000E+00 0.000E+00
                                         6.501E+01 2.353E-01 0.000E+00 0.000E+00
                                         2.050E+01 5.498E-01 0.000E+00 0.000E+00
                                  2 S  
                                         6.716E+00 1.000E+00 0.000E+00 0.000E+00
                                  3 S  
                                         1.147E+00 1.000E+00 0.000E+00 0.000E+00
                                  4 S  
                                         3.342E-01 1.000E+00 0.000E+00 0.000E+00
                           5-     7 P  
                                         1.769E+01 0.000E+00 4.359E-02 0.000E+00
                                         3.854E+00 0.000E+00 2.318E-01 0.000E+00
                                         1.047E+00 0.000E+00 5.146E-01 0.000E+00
                           8-    10 P  
                                         2.759E-01 0.000E+00 1.000E+00 0.000E+00
                          11-    15 D  
                                         8.000E-01 0.000E+00 0.000E+00 1.000E+00
   2 O    2.959   7.533   6.153
   3 O   -5.255   1.216  -4.575
   4 O   -2.959  -7.533  -6.153
   5 O    1.476   8.706  -4.239
   6 O    3.837  -0.043  -6.488
   7 O   -1.476  -8.706   4.239
   8 O   -3.837   0.043   6.488
   9 N    5.597  -7.994  -3.436
                                121 S  
                                         5.072E+03 1.707E-03 0.000E+00 0.000E+00
                                         7.614E+02 1.309E-02 0.000E+00 0.000E+00
                                         1.732E+02 6.510E-02 0.000E+00 0.000E+00
                                         4.867E+01 2.305E-01 0.000E+00 0.000E+00
                                         1.533E+01 5.330E-01 0.000E+00 0.000E+00
                                122 S  
                                         5.019E+00 1.000E+00 0.000E+00 0.000E+00
                                123 S  
                                         8.355E-01 1.000E+00 0.000E+00 0.000E+00
                                124 S  
                                         2.463E-01 1.000E+00 0.000E+00 0.000E+00
                         125-   127 P  
                                         1.355E+01 0.000E+00 4.063E-02 0.000E+00
                                         2.918E+00 0.000E+00 2.209E-01 0.000E+00
                                         7.983E-01 0.000E+00 5.186E-01 0.000E+00
                         128-   130 P  
                                         2.190E-01 0.000E+00 1.000E+00 0.000E+00
                         131-   135 D  
                                         8.000E-01 0.000E+00 0.000E+00 1.000E+00
  10 N   -0.285   0.755  -7.291
  11 N   -5.597   7.994   3.436
  12 N    0.285  -0.755   7.291
  13 C    5.418  -6.338  -1.366
                                181 S  
                                         3.624E+03 1.634E-03 0.000E+00 0.000E+00
                                         5.440E+02 1.252E-02 0.000E+00 0.000E+00
                                         1.237E+02 6.211E-02 0.000E+00 0.000E+00
                                         3.476E+01 2.182E-01 0.000E+00 0.000E+00
                                         1.093E+01 4.980E-01 0.000E+00 0.000E+00
                                182 S  
                                         3.574E+00 1.000E+00 0.000E+00 0.000E+00
                                183 S  
                                         5.748E-01 1.000E+00 0.000E+00 0.000E+00
                                184 S  
                                         1.730E-01 1.000E+00 0.000E+00 0.000E+00
                         185-   187 P  
                                         9.443E+00 0.000E+00 3.790E-02 0.000E+00
                                         2.002E+00 0.000E+00 2.082E-01 0.000E+00
                                         5.463E-01 0.000E+00 5.047E-01 0.000E+00
                         188-   190 P  
                                         1.520E-01 0.000E+00 1.000E+00 0.000E+00
                         191-   195 D  
                                         8.000E-01 0.000E+00 0.000E+00 1.000E+00
  14 C   -0.105   2.412  -9.361
  15 C   -5.418   6.338   1.366
  16 C    0.105  -2.412   9.361
  17 C    3.397  -6.271   0.313
  18 C    1.915   2.478 -11.040
  19 C   -3.397   6.271  -0.313
  20 C   -1.915  -2.478  11.040
  21 C    3.382  -4.555   2.294
  22 C    4.833   4.194   8.435
  23 C   -3.382   4.555  -2.294
  24 C   -4.833  -4.194  -8.435
  25 C    5.384  -2.891   2.659
  26 C    2.830   5.859   8.069
  27 C   -5.384   2.891  -2.659
  28 C   -2.830  -5.859  -8.069
  29 C   -6.094  -3.001   1.013
  30 C    0.781   5.748   9.715
  31 C    6.094   3.001  -1.013
  32 C   -0.781  -5.748  -9.715
  33 C   -6.090  -4.699  -0.973
  34 C   -2.124   4.050  -9.756
  35 C    6.090   4.699   0.973
  36 C    2.124  -4.050   9.756
  37 C    3.728   8.445  -4.773
  38 C    1.585  -0.305  -5.954
  39 C   -3.728  -8.445   4.773
  40 C   -1.585   0.305   5.954
  41 C    4.561   6.878  -6.989
  42 C    0.752  -1.871  -3.738
  43 C   -4.561  -6.878   6.989
  44 C   -0.752   1.871   3.738
  45 H    1.820  -7.543   0.114
                                661 S  
                                         1.874E+01 1.968E-02 0.000E+00 0.000E+00
                                         2.826E+00 1.380E-01 0.000E+00 0.000E+00
                                         6.401E-01 4.783E-01 0.000E+00 0.000E+00
                                662 S  
                                         1.756E-01 1.000E+00 0.000E+00 0.000E+00
  46 H    3.492   1.206 -10.841
  47 H   -1.820   7.543  -0.114
  48 H   -3.492  -1.206  10.841
  49 H    1.784  -4.536   3.572
  50 H    6.430   4.213   7.157
  51 H   -1.784   4.536  -3.572
  52 H   -6.430  -4.213  -7.157
  53 H   -4.506  -1.735   1.245
  54 H   -0.807   7.014   9.482
  55 H    4.506   1.735  -1.245
  56 H    0.807  -7.014  -9.482
  57 H   -4.478  -4.751  -2.232
  58 H   -3.736   3.999  -8.497
  59 H    4.478   4.751   2.232
  60 H    3.736  -3.999   8.497
  61 H   -6.606  -0.525   5.028
  62 H    1.293   8.225   5.699
  63 H    6.606   0.525  -5.028
  64 H   -1.293  -8.225  -5.699
  65 H   -6.154  -8.253  -4.107
  66 H   -2.060   0.496  -6.621
  67 H    6.154   8.253   4.107
  68 H    2.060  -0.496   6.621
  69 H    3.361   7.253  -8.618
  70 H    1.952  -1.496  -2.109
  71 H   -3.361  -7.253   8.618
  72 H   -1.952   1.496   2.109
  73 H    6.524   7.194  -7.514
  74 H   -1.211  -1.555  -3.213
  75 H   -6.524  -7.194   7.514
  76 H    1.211   1.555   3.213
  77 H    4.330   4.880  -6.553
  78 H    0.983  -3.869  -4.174
  79 H   -4.330  -4.880   6.553
  80 H   -0.983   3.869   4.174

 *******************************************************************************
 FINISHED BASIS SET HANDLING 
 *******************************************************************************

 INFORMATION **** SET_MPP **** PCRYSTAL CALCULATION
 INFORMATION **** READM2 **** NEW DEFAULT: FOCK/KS MATRIX MIXING SET TO 30 %
 INFORMATION **** READM2 **** NEW DEFAULT: FULL DIRECT SCF MODE
 INFORMATION **** READM2 **** NEW DEFAULT: COULOMB BIPOLAR BUFFER SET TO 32 Mb
 INFORMATION **** READM2 **** NEW DEFAULT: EXCHANGE BIPOLAR BUFFER SET TO 32 Mb

 *******************************************************************************
 NEW DEFAULT: DFT INTEGRATION GRID INCREASED TO XLGRID
 NEW DEFAULT: DIIS ACCELERATOR ACTIVE
 USE KEYWORD NODIIS TO TURN IT OFF
 *******************************************************************************

 INFORMATION **** RDDFTP **** PBEh-3c calculation
 INFORMATION **** RDDFTP **** PBEh hybrid functional combined with D3 and gCP

PLEASE CITE:
(1) PBEh-3c Reference
 S. Grimme, J. G. Brandenburg, C. Bannwarth, and A. Hansen, 
 J. Chem. Phys. 143, 054107 (2015)
(2) DFT-D3 Reference
 S. Grimme, J. Antony, S. Ehrlich, and H. Krieg, J. Chem. Phys. 132, 154104 (2010)
(3) gCP Reference
 H. Kruse and S. Grimme J. Chem. Phys, 136, 154101 (2012)
 J. G. Brandenburg, M. Alessio, B. Civalleri, M. F. Peintinger
 T. Bredow, and S. Grimme, J. Phys. Chem. A, 117, 9282 (2013) 

 WARNING **** RDDFTP **** PBEh-3c has to be combined with def2-mSVP basis set
 WARNING **** RDDFTP **** Note: Harmonic frequencies are scaled by 0.95
 WARNING **** RDDFTP **** as recommended in original publication
 INFORMATION **** TOLDEE **** SCF TOL ON TOTAL ENERGY SET TO           9
 INFORMATION **** TOLINTEG **** COULOMB AND EXCHANGE SERIES TOLERANCES MODIFIED
 INFORMATION **** MAXCYCLE **** MAX NUMBER OF SCF CYCLES SET TO          30
 WARNING **** READM2 **** PROBABLE LOSS IN FREQCALC ACCURACY; SCF TOL LT          10
 *******************************************************************************
 N. OF ATOMS PER CELL        80  COULOMB OVERLAP TOL         (T1) 10**   -8
 NUMBER OF SHELLS           380  COULOMB PENETRATION TOL     (T2) 10**   -8
 NUMBER OF AO               732  EXCHANGE OVERLAP TOL        (T3) 10**   -8
 N. OF ELECTRONS PER CELL   320  EXCHANGE PSEUDO OVP (F(G))  (T4) 10**   -8
 CORE ELECTRONS PER CELL     88  EXCHANGE PSEUDO OVP (P(G))  (T5) 10**  -24
 N. OF SYMMETRY OPERATORS     4  POLE ORDER IN MONO ZONE                  4
 *******************************************************************************
 TYPE OF CALCULATION :  RESTRICTED CLOSED SHELL
 KOHN-SHAM HAMILTONIAN

 (EXCHANGE)[CORRELATION] FUNCTIONAL:(PBEh-3c)[PBEh-3c]


 HYBRID EXCHANGE - PERCENTAGE OF FOCK EXCHANGE    42.0000

 CAPPA:IS1  4;IS2  4;IS3  2; K PTS MONK NET  18; SYMMOPS:K SPACE   4;G SPACE   4

 *******************************************************************************
 MAX NUMBER OF SCF CYCLES      30  CONVERGENCE ON DELTAP        10**-19
 WEIGHT OF F(I) IN F(I+1)      50% CONVERGENCE ON ENERGY        10**- 9
 SHRINK. FACT.(MONKH.)    4  4  2  NUMBER OF K POINTS IN THE IBZ     18
 SHRINKING FACTOR(GILAT NET)    4  NUMBER OF K POINTS(GILAT NET)     18
 *******************************************************************************
 *** K POINTS COORDINATES (OBLIQUE COORDINATES IN UNITS OF IS =  4)
   1-R(  0  0  0)   2-C(  1  0  0)   3-R(  2  0  0)   4-C(  0  1  0)
   5-C(  1  1  0)   6-C(  2  1  0)   7-R(  0  2  0)   8-C(  1  2  0)
   9-R(  2  2  0)  10-R(  0  0  1)  11-C(  1  0  1)  12-R(  2  0  1)
  13-C(  0  1  1)  14-C(  1  1  1)  15-C(  2  1  1)  16-R(  0  2  1)
  17-C(  1  2  1)  18-R(  2  2  1)

 DIRECT LATTICE VECTORS COMPON. (A.U.)     RECIP. LATTICE VECTORS COMPON. (A.U.) 
        X            Y            Z              X            Y            Z
   13.5268246    0.0000000    0.0015473      0.4644719    0.0000000    0.2300305
   -0.0000000   17.4983521    0.0000000     -0.0000000    0.3590730   -0.0000000
  -10.6252169    0.0000000   21.4541741     -0.0000335   -0.0000000    0.2928488

 DISK SPACE FOR EIGENVECTORS (FTN 10)    15003072 REALS

 SYMMETRY ADAPTION OF THE BLOCH FUNCTIONS ENABLED
 TTTTTTTTTTTTTTTTTTTTTTTTTTTTTT gordsh1     TELAPSE        4.25 TCPU        2.78

 MATRIX SIZE: P(G) 2270972, F(G)  212692, P(G) IRR  288007, F(G) IRR   53956
 MAX G-VECTOR INDEX FOR 1- AND 2-ELECTRON INTEGRALS  95

 TTTTTTTTTTTTTTTTTTTTTTTTTTTTTT INPUT       TELAPSE        4.29 TCPU        2.81

 NEIGHBORS OF THE NON-EQUIVALENT ATOMS

 N = NUMBER OF NEIGHBORS AT DISTANCE R
    ATOM  N     R/ANG      R/AU   NEIGHBORS (ATOM LABELS AND CELL INDICES)
   1 O    1     0.9843     1.8601   61 H    1 0 0
   1 O    1     1.3482     2.5477   25 C    0 0 0
   1 O    1     2.0435     3.8617   68 H    0 0 0
   1 O    1     2.3585     4.4569   21 C    0 0 0
   1 O    1     2.4026     4.5402   29 C    1 0 0
   1 O    1     2.5967     4.9071   49 H    0 0 0

   5 O    1     1.2325     2.3291   37 C    0 0 0
   5 O    1     1.6835     3.1814   64 H    0 1 0
   5 O    1     2.2616     4.2738    9 N    0 1 0
   5 O    1     2.3914     4.5190   41 C    0 0 0
   5 O    1     2.4034     4.5418   45 H    0 1 0
   5 O    1     2.6185     4.9482   78 H    0 1 0

   9 N    1     1.0135     1.9153   65 H    1 0 0
   9 N    1     1.3391     2.5305   37 C    0-1 0
   9 N    1     1.4061     2.6572   13 C    0 0 0
   9 N    1     2.2616     4.2738    5 O    0-1 0
   9 N    1     2.3854     4.5077   33 C    1 0 0
   9 N    1     2.4015     4.5382   41 C    0-1 0

  13 C    1     1.3906     2.6279   17 C    0 0 0
  13 C    1     1.3917     2.6300   33 C    1 0 0
  13 C    1     1.4061     2.6572    9 N    0 0 0
  13 C    1     2.0492     3.8725   65 H    1 0 0
  13 C    1     2.1459     4.0552   57 H    1 0 0
  13 C    1     2.1552     4.0727   45 H    0 0 0

  17 C    1     1.0773     2.0359   45 H    0 0 0
  17 C    1     1.3870     2.6210   21 C    0 0 0
  17 C    1     1.3906     2.6279   13 C    0 0 0
  17 C    1     2.1322     4.0293   49 H    0 0 0
  17 C    1     2.3923     4.5208   33 C    1 0 0
  17 C    1     2.4182     4.5698   25 C    0 0 0

  21 C    1     1.0828     2.0461   49 H    0 0 0
  21 C    1     1.3870     2.6210   17 C    0 0 0
  21 C    1     1.3915     2.6296   25 C    0 0 0
  21 C    1     2.1246     4.0149   45 H    0 0 0
  21 C    1     2.3585     4.4569    1 O    0 0 0
  21 C    1     2.3941     4.5241   29 C    1 0 0

  25 C    1     1.3482     2.5477    1 O    0 0 0
  25 C    1     1.3915     2.6296   21 C    0 0 0
  25 C    1     1.3919     2.6303   29 C    1 0 0
  25 C    1     1.9499     3.6848   61 H    1 0 0
  25 C    1     2.1497     4.0624   49 H    0 0 0
  25 C    1     2.1534     4.0692   53 H    1 0 0

  29 C    1     1.0818     2.0442   53 H    0 0 0
  29 C    1     1.3823     2.6121   33 C    0 0 0
  29 C    1     1.3919     2.6303   25 C   -1 0 0
  29 C    1     2.1295     4.0241   57 H    0 0 0
  29 C    1     2.3941     4.5241   21 C   -1 0 0
  29 C    1     2.4026     4.5402    1 O   -1 0 0

  33 C    1     1.0825     2.0457   57 H    0 0 0
  33 C    1     1.3823     2.6121   29 C    0 0 0
  33 C    1     1.3917     2.6300   13 C   -1 0 0
  33 C    1     2.1308     4.0266   53 H    0 0 0
  33 C    1     2.3854     4.5077    9 N   -1 0 0
  33 C    1     2.3923     4.5208   17 C   -1 0 0

  37 C    1     1.2325     2.3291    5 O    0 0 0
  37 C    1     1.3391     2.5305    9 N    0 1 0
  37 C    1     1.5024     2.8390   41 C    0 0 0
  37 C    1     2.0060     3.7907   65 H    1 1 0
  37 C    1     2.1321     4.0291   77 H    0 0 0
  37 C    1     2.1391     4.0423   69 H    0 0 0

  41 C    1     1.0880     2.0561   73 H    0 0 0
  41 C    1     1.0888     2.0575   69 H    0 0 0
  41 C    1     1.0892     2.0582   77 H    0 0 0
  41 C    1     1.5024     2.8390   37 C    0 0 0
  41 C    1     2.3914     4.5190    5 O    0 0 0
  41 C    1     2.4015     4.5382    9 N    0 1 0

  45 H    1     1.0773     2.0359   17 C    0 0 0
  45 H    1     2.1246     4.0149   21 C    0 0 0
  45 H    1     2.1552     4.0727   13 C    0 0 0
  45 H    1     2.3140     4.3729   47 H    0-1 0
  45 H    1     2.4034     4.5418    5 O    0-1 0
  45 H    1     2.4251     4.5828   49 H    0 0 0

  49 H    1     1.0828     2.0461   21 C    0 0 0
  49 H    1     2.1322     4.0293   17 C    0 0 0
  49 H    1     2.1497     4.0624   25 C    0 0 0
  49 H    1     2.4251     4.5828   45 H    0 0 0
  49 H    1     2.5967     4.9071    1 O    0 0 0
  49 H    1     2.6828     5.0698   68 H    0 0 0

  53 H    1     1.0818     2.0442   29 C    0 0 0
  53 H    1     2.1308     4.0266   33 C    0 0 0
  53 H    1     2.1534     4.0692   25 C   -1 0 0
  53 H    1     2.2268     4.2081   72 H    0 0 0
  53 H    1     2.3775     4.4929   61 H    0 0 0
  53 H    1     2.4355     4.6025   57 H    0 0 0

  57 H    1     1.0825     2.0457   33 C    0 0 0
  57 H    1     2.1295     4.0241   29 C    0 0 0
  57 H    1     2.1459     4.0552   13 C   -1 0 0
  57 H    1     2.2819     4.3122   65 H    0 0 0
  57 H    1     2.4355     4.6025   53 H    0 0 0
  57 H    1     2.4735     4.6743   74 H    0 0 0

  61 H    1     0.9843     1.8601    1 O   -1 0 0
  61 H    1     1.6835     3.1814    8 O    0 0 0
  61 H    1     1.9499     3.6848   25 C   -1 0 0
  61 H    1     2.3775     4.4929   53 H    0 0 0
  61 H    1     2.5113     4.7456   29 C    0 0 0
  61 H    1     2.7067     5.1150   68 H   -1 0 0

  65 H    1     1.0135     1.9153    9 N   -1 0 0
  65 H    1     2.0060     3.7907   37 C   -1-1 0
  65 H    1     2.0435     3.8617    4 O    0 0 0
  65 H    1     2.0492     3.8725   13 C   -1 0 0
  65 H    1     2.1524     4.0675   73 H   -1-1 0
  65 H    1     2.2819     4.3122   57 H    0 0 0

  69 H    1     1.0888     2.0575   41 C    0 0 0
  69 H    1     1.7418     3.2915   77 H    0 0 0
  69 H    1     1.7732     3.3508   73 H    0 0 0
  69 H    1     2.1391     4.0423   37 C    0 0 0
  69 H    1     2.2268     4.2081   56 H    0 1 0
  69 H    1     2.6372     4.9836    5 O    0 0 0

  73 H    1     1.0880     2.0561   41 C    0 0 0
  73 H    1     1.7623     3.3303   77 H    0 0 0
  73 H    1     1.7732     3.3508   69 H    0 0 0
  73 H    1     2.1524     4.0675   65 H    1 1 0
  73 H    1     2.1751     4.1103   37 C    0 0 0
  73 H    1     2.4735     4.6743   58 H    1 0 0

  77 H    1     1.0892     2.0582   41 C    0 0 0
  77 H    1     1.7418     3.2915   69 H    0 0 0
  77 H    1     1.7623     3.3303   73 H    0 0 0
  77 H    1     2.1321     4.0291   37 C    0 0 0
  77 H    1     2.6185     4.9482    6 O    0 0 0
  77 H    1     2.7230     5.1458   63 H    0 0 0


 SYMMETRY ALLOWED INTERNAL DEGREE(S) OF FREEDOM:  60
 TTTTTTTTTTTTTTTTTTTTTTTTTTTTTT SYMM        TELAPSE        4.32 TCPU        2.84
 TTTTTTTTTTTTTTTTTTTTTTTTTTTTTT INT_SCREEN  TELAPSE        4.47 TCPU        3.00

 *******************************************************************************
 *                                                                             *
 *                                                                             *
 *         FFFFF  RRRR   EEEE   QQQ   U   U  EEEE  N   N   CCC  Y   Y          *
 *         F      R   R  E     Q   Q  U   U  E     NN  N  C      Y Y           *
 *         FFF    RRRR   EEEE  Q   Q  U   U  EEEE  N N N  C       Y            *
 *         F      R   R  E     Q  QQ  U   U  E     N  NN  C       Y            *
 *         F      R   R  EEEE   QQ Q   UUU   EEEE  N   N   CCC    Y            *
 *                                                                             *
 *                                                                             *
 * CALCULATION OF PHONON FREQUENCIES AT THE GAMMA POINT.                       *
 *                                                                             *
 * SYMMETRY IS EXPLOITED TO BUILD THE TOTAL HESSIAN MATRIX.                    *
 * (F. PASCALE PHD THESIS TURIN-PARIS 2002)                                    *
 *                                                                             *
 *******************************************************************************


 * INTENSITIES COMPUTED VIA THE BERRY PHASE APPROACH                           *
 *                                                                             *
 * REFERENCES TO BE QUOTED WHEN USING THIS MODULE:                             *
 *                                                                             *
 * F. Pascale, C.M. Zicovich-Wilson, F. Lopez, B. Civalleri                    *
 * R. Orlando, R. Dovesi                                                       *
 * The calculation of the vibration frequencies of crystalline                 *
 * compounds and its implementation in the CRYSTAL code                        *
 * J. Comput. Chem. 25 (2004) 888-897                                          *
 *                                                                             *
 * C.M. Zicovich-Wilson, F. Pascale, C. Roetti, V.R. Saunders,                 *
 * R. Orlando, R. Dovesi                                                       *
 * The calculation of the vibration frequencies of alpha-quartz:               *
 * the effect of hamiltonian and basis set                                     *
 * J. Comput. Chem. 25 (2004) 1873-1881                                        *
 *******************************************************************************



 ATOMS ISOTOPIC MASS (AMU) FOR FREQUENCY CALCULATION 

    1 O      15.9949    2 O      15.9949    3 O      15.9949    4 O      15.9949
    5 O      15.9949    6 O      15.9949    7 O      15.9949    8 O      15.9949
    9 N      14.0031   10 N      14.0031   11 N      14.0031   12 N      14.0031
   13 C      12.0000   14 C      12.0000   15 C      12.0000   16 C      12.0000
   17 C      12.0000   18 C      12.0000   19 C      12.0000   20 C      12.0000
   21 C      12.0000   22 C      12.0000   23 C      12.0000   24 C      12.0000
   25 C      12.0000   26 C      12.0000   27 C      12.0000   28 C      12.0000
   29 C      12.0000   30 C      12.0000   31 C      12.0000   32 C      12.0000
   33 C      12.0000   34 C      12.0000   35 C      12.0000   36 C      12.0000
   37 C      12.0000   38 C      12.0000   39 C      12.0000   40 C      12.0000
   41 C      12.0000   42 C      12.0000   43 C      12.0000   44 C      12.0000
   45 H       1.0078   46 H       1.0078   47 H       1.0078   48 H       1.0078
   49 H       1.0078   50 H       1.0078   51 H       1.0078   52 H       1.0078
   53 H       1.0078   54 H       1.0078   55 H       1.0078   56 H       1.0078
   57 H       1.0078   58 H       1.0078   59 H       1.0078   60 H       1.0078
   61 H       1.0078   62 H       1.0078   63 H       1.0078   64 H       1.0078
   65 H       1.0078   66 H       1.0078   67 H       1.0078   68 H       1.0078
   69 H       1.0078   70 H       1.0078   71 H       1.0078   72 H       1.0078
   73 H       1.0078   74 H       1.0078   75 H       1.0078   76 H       1.0078
   77 H       1.0078   78 H       1.0078   79 H       1.0078   80 H       1.0078

 INFORMATION CONCERNING THE SCF+GRADIENT CALCULATIONS REQUIRED FOR
 GENERATING FREQUENCIES. IN PRINCIPLE 3N+1 SCF + GRADIENT
 CALCULATIONS  ARE REQUIRED;
 FOR EACH OF THEM THE REMAINING POINT SYMMETRY IS INDICATED.
 POINT SYMMETRY PERMITS TO GENERATE GRADIENTS FOR DISPLACEMENT B 
 STARTING FROM THE GRADIENT GENERATED BY DISPLACEMENT A.

   N   LABEL SYMBOL DISPLACEMENT     SYM. 

   1     EQUILIBRIUM GEOMETRY            4

   2      1   O            DX           1
   3      1   O            DY           1
   4      1   O            DZ           1
   5      5   O            DX           1
   6      5   O            DY           1
   7      5   O            DZ           1
   8      9   N            DX           1
   9      9   N            DY           1
  10      9   N            DZ           1
  11     13   C            DX           1
  12     13   C            DY           1
  13     13   C            DZ           1
  14     17   C            DX           1
  15     17   C            DY           1
  16     17   C            DZ           1
  17     21   C            DX           1
  18     21   C            DY           1
  19     21   C            DZ           1
  20     25   C            DX           1
  21     25   C            DY           1
  22     25   C            DZ           1
  23     29   C            DX           1
  24     29   C            DY           1
  25     29   C            DZ           1
  26     33   C            DX           1
  27     33   C            DY           1
  28     33   C            DZ           1
  29     37   C            DX           1
  30     37   C            DY           1
  31     37   C            DZ           1
  32     41   C            DX           1
  33     41   C            DY           1
  34     41   C            DZ           1
  35     45   H            DX           1
  36     45   H            DY           1
  37     45   H            DZ           1
  38     49   H            DX           1
  39     49   H            DY           1
  40     49   H            DZ           1
  41     53   H            DX           1
  42     53   H            DY           1
  43     53   H            DZ           1
  44     57   H            DX           1
  45     57   H            DY           1
  46     57   H            DZ           1
  47     61   H            DX           1
  48     61   H            DY           1
  49     61   H            DZ           1
  50     65   H            DX           1
  51     65   H            DY           1
  52     65   H            DZ           1
  53     69   H            DX           1
  54     69   H            DY           1
  55     69   H            DZ           1
  56     73   H            DX           1
  57     73   H            DY           1
  58     73   H            DZ           1
  59     77   H            DX           1
  60     77   H            DY           1
  61     77   H            DZ           1
 USE OF RESIDUAL SYMMETRY AFTER DISPLACEMENT

 NUMERICAL GRADIENT COMPUTED WITH A SINGLE DISPLACEMENT (+DX) FOR EACH
 CARTESIAN COORDINATE WITH RESPECT TO THE EQUILIBRIUM CONFIGURATION
 DX=  0.003 ANGSTROM
 NUMBER OF IRREDUCIBLE ATOMS                    20
 NUMBER OF SCF+GRADIENT CALCULATIONS            61

  ATOM  SYMOP  ORDER
    1      1      1
    5      1      1
    9      1      1
   13      1      1
   17      1      1
   21      1      1
   25      1      1
   29      1      1
   33      1      1
   37      1      1
   41      1      1
   45      1      1
   49      1      1
   53      1      1
   57      1      1
   61      1      1
   65      1      1
   69      1      1
   73      1      1
   77      1      1

 ATOM  : IRREDUCIBLE ATOM
 SYMOP : NUMBER OF SYMMETRY OPERATORS THAT DOESN'T MOVE THE IRREDUCIBLE ATOM
 ORDER : MAXIMUM ORDER AMONG THE OPERATORS OF THE IRREDUCIBLE ATOM

 *******************************************************************************


 GCALCO - MAX INDICES DIRECT LATTICE VECTOR    20    14    11
 NO.OF VECTORS CREATED 6999 STARS 1868 RMAX   203.90102 BOHR

 CAPPA:IS1  4;IS2  4;IS3  2; K PTS MONK NET  18; SYMMOPS:K SPACE   4;G SPACE   4

 TTTTTTTTTTTTTTTTTTTTTTTTTTTTTT gordsh1     TELAPSE        4.50 TCPU        3.02

 MATRIX SIZE: P(G) 2270972, F(G)  212692, P(G) IRR  288007, F(G) IRR   53956
 MAX G-VECTOR INDEX FOR 1- AND 2-ELECTRON INTEGRALS  95

 TTTTTTTTTTTTTTTTTTTTTTTTTTTTTT INPUT       TELAPSE        4.52 TCPU        3.04

 SYMMETRY ALLOWED INTERNAL DEGREE(S) OF FREEDOM:  60
 TTTTTTTTTTTTTTTTTTTTTTTTTTTTTT SYMM        TELAPSE        4.55 TCPU        3.07
 TTTTTTTTTTTTTTTTTTTTTTTTTTTTTT INT_SCREEN  TELAPSE        4.56 TCPU        3.08

         THE FIRST POINT IS RESTORED FROM THE FREQINFO.DAT


 RESTART FROM  AN INCOMPLETE HESSIAN MATRIX


 HHHHHHHHHHHHHHHHHHHHHHHHHHHHHHHHHHHHHHHHHHHHHHHHHHHHHHHHHHHHHHHHHHHHHHHHHHHHHHH
                   FORCE CONSTANT MATRIX - NUMERICAL ESTIMATE
 HHHHHHHHHHHHHHHHHHHHHHHHHHHHHHHHHHHHHHHHHHHHHHHHHHHHHHHHHHHHHHHHHHHHHHHHHHHHHHH
 MAX ABS(DGRAD): MAXIMUM ABSOLUTE GRADIENT DIFFERENCE WITH RESPECT TO
                 THE CENTRAL POINT
 DE:             ENERGY DIFFERENCE WITH RESPECT TO THE CENTRAL POINT
                 (DE IS EXPECTED TO BE POSITIVE FOR ALL DISPLACEMENTS)

   ATOM      MAX ABS(DGRAD)       TOTAL ENERGY (AU)  N.CYC      DE       SYM
    CENTRAL POINT             -2.057686888570E+03     0     0.0000E+00     4
    1 O  DX                   RESTORED FROM A PREV. HESS. MATRIX
    1 O  DY                   RESTORED FROM A PREV. HESS. MATRIX
    1 O  DZ                   RESTORED FROM A PREV. HESS. MATRIX
    5 O  DX                   RESTORED FROM A PREV. HESS. MATRIX
    5 O  DY                   RESTORED FROM A PREV. HESS. MATRIX
    5 O  DZ                   RESTORED FROM A PREV. HESS. MATRIX
    9 N  DX                   RESTORED FROM A PREV. HESS. MATRIX
    9 N  DY                   RESTORED FROM A PREV. HESS. MATRIX
    9 N  DZ                   RESTORED FROM A PREV. HESS. MATRIX
   13 C  DX                   RESTORED FROM A PREV. HESS. MATRIX
   13 C  DY                   RESTORED FROM A PREV. HESS. MATRIX
   13 C  DZ                   RESTORED FROM A PREV. HESS. MATRIX
   17 C  DX                   RESTORED FROM A PREV. HESS. MATRIX
   17 C  DY                   RESTORED FROM A PREV. HESS. MATRIX
   17 C  DZ                   RESTORED FROM A PREV. HESS. MATRIX
   21 C  DX                   RESTORED FROM A PREV. HESS. MATRIX
   21 C  DY                   RESTORED FROM A PREV. HESS. MATRIX
   21 C  DZ                   RESTORED FROM A PREV. HESS. MATRIX
   25 C  DX                   RESTORED FROM A PREV. HESS. MATRIX
   25 C  DY                   RESTORED FROM A PREV. HESS. MATRIX
   25 C  DZ                   RESTORED FROM A PREV. HESS. MATRIX
   29 C  DX                   RESTORED FROM A PREV. HESS. MATRIX
   29 C  DY                   RESTORED FROM A PREV. HESS. MATRIX
   29 C  DZ                   RESTORED FROM A PREV. HESS. MATRIX
   33 C  DX                   RESTORED FROM A PREV. HESS. MATRIX
   33 C  DY                   RESTORED FROM A PREV. HESS. MATRIX
   33 C  DZ                   RESTORED FROM A PREV. HESS. MATRIX
   37 C  DX                   RESTORED FROM A PREV. HESS. MATRIX
   37 C  DY                   RESTORED FROM A PREV. HESS. MATRIX
   37 C  DZ                   RESTORED FROM A PREV. HESS. MATRIX
   41 C  DX                   RESTORED FROM A PREV. HESS. MATRIX
   41 C  DY                   RESTORED FROM A PREV. HESS. MATRIX
   41 C  DZ                   RESTORED FROM A PREV. HESS. MATRIX
   45 H  DX                   RESTORED FROM A PREV. HESS. MATRIX
   45 H  DY                   RESTORED FROM A PREV. HESS. MATRIX
   45 H  DZ                   RESTORED FROM A PREV. HESS. MATRIX
   49 H  DX                   RESTORED FROM A PREV. HESS. MATRIX
   49 H  DY                   RESTORED FROM A PREV. HESS. MATRIX
   49 H  DZ                   RESTORED FROM A PREV. HESS. MATRIX
   53 H  DX                   RESTORED FROM A PREV. HESS. MATRIX
   53 H  DY                   RESTORED FROM A PREV. HESS. MATRIX
   53 H  DZ                   RESTORED FROM A PREV. HESS. MATRIX
   57 H  DX                   RESTORED FROM A PREV. HESS. MATRIX
   57 H  DY                   RESTORED FROM A PREV. HESS. MATRIX
   57 H  DZ                   RESTORED FROM A PREV. HESS. MATRIX
   61 H  DX                   RESTORED FROM A PREV. HESS. MATRIX
   61 H  DY                   RESTORED FROM A PREV. HESS. MATRIX
   61 H  DZ                   RESTORED FROM A PREV. HESS. MATRIX
   65 H  DX                   RESTORED FROM A PREV. HESS. MATRIX
   65 H  DY                   RESTORED FROM A PREV. HESS. MATRIX
   65 H  DZ                   RESTORED FROM A PREV. HESS. MATRIX
   69 H  DX                   RESTORED FROM A PREV. HESS. MATRIX
   69 H  DY                   RESTORED FROM A PREV. HESS. MATRIX
   69 H  DZ                   RESTORED FROM A PREV. HESS. MATRIX
   73 H  DX                   RESTORED FROM A PREV. HESS. MATRIX
   73 H  DY                   RESTORED FROM A PREV. HESS. MATRIX
   73 H  DZ                   RESTORED FROM A PREV. HESS. MATRIX
   77 H  DX                   RESTORED FROM A PREV. HESS. MATRIX
   77 H  DY                   RESTORED FROM A PREV. HESS. MATRIX
   77 H  DZ                   RESTORED FROM A PREV. HESS. MATRIX

 GCALCO - MAX INDICES DIRECT LATTICE VECTOR    20    14    11
 NO.OF VECTORS CREATED 6999 STARS 1868 RMAX   203.90102 BOHR

 CAPPA:IS1  4;IS2  4;IS3  2; K PTS MONK NET  18; SYMMOPS:K SPACE   4;G SPACE   4

 TTTTTTTTTTTTTTTTTTTTTTTTTTTTTT gordsh1     TELAPSE        5.45 TCPU        3.97

 MATRIX SIZE: P(G) 2270972, F(G)  212692, P(G) IRR  288007, F(G) IRR   53956
 MAX G-VECTOR INDEX FOR 1- AND 2-ELECTRON INTEGRALS  95

 TTTTTTTTTTTTTTTTTTTTTTTTTTTTTT INPUT       TELAPSE        5.47 TCPU        3.99

 SYMMETRY ALLOWED INTERNAL DEGREE(S) OF FREEDOM:  60
 TTTTTTTTTTTTTTTTTTTTTTTTTTTTTT SYMM        TELAPSE        5.49 TCPU        4.01
 TTTTTTTTTTTTTTTTTTTTTTTTTTTTTT INT_SCREEN  TELAPSE        5.50 TCPU        4.02

 +++ SYMMETRY ADAPTION OF VIBRATIONAL MODES +++

 SYMMETRY INFORMATION:
 K-LITTLE GROUP: CLASS TABLE, CHARACTER TABLE.
 IRREP-(DIMENSION, NO. IRREDUCIBLE SETS)
 [WARNINGS: (1) ONLY ACTIVE IRREPS ARE GENERATED AND LISTED.
            (2) ONLY RELEVANT CLASSES ARE CONSIDERED IN THE CHARACTER TABLE
            (3) SYMBOLS MAY NOT FULLY COINCIDE WITH THOSE FROM TEXT BOOKS.]

 (P, D, RP, RD, STAND FOR PAIRING, DOUBLING, REAL PAIRING AND REAL DOUBLING 
 OF THE IRREPS (SEE MANUAL))

 CLASS  | GROUP OPERATORS (SEE SYMMOPS KEYWORD)
 --------------------------------------------------------------------
 C2     |   2;
 I      |   3;
 SGH    |   4;

 IRREP/CLA      E     C2      I    SGH
 -------------------------------------
  MULTIP |      1      1      1      1
 -------------------------------------
    Ag   |   1.00   1.00   1.00   1.00
    Bg   |   1.00  -1.00   1.00  -1.00
    Au   |   1.00   1.00  -1.00  -1.00
    Bu   |   1.00  -1.00  -1.00   1.00

 Ag -(1,  60); Bg -(1,  60);
 Au -(1,  60); Bu -(1,  60);

 HHHHHHHHHHHHHHHHHHHHHHHHHHHHHHHHHHHHHHHHHHHHHHHHHHHHHHHHHHHHHHHHHHHHHHHHHHHHHH
 EIGENVALUES (EIGV) OF THE MASS WEIGHTED HESSIAN MATRIX AND HARMONIC TRANSVERSE
 OPTICAL (TO) FREQUENCIES. IRREP LABELS REFER TO SYMMETRY REPRESENTATION
 ANALYSIS; A AND I INDICATE WHETHER THE MODE IS ACTIVE OR INACTIVE,
 RESPECTIVELY, FOR IR AND RAMAN; INTEGRATED IR INTENSITIES IN BRACKETS.

 CONVERSION FACTORS FOR FREQUENCIES:
      1 CM**(-1) =   0.4556335E-05 HARTREE
      1 THZ      =   0.3335641E+02 CM**(-1)

 HHHHHHHHHHHHHHHHHHHHHHHHHHHHHHHHHHHHHHHHHHHHHHHHHHHHHHHHHHHHHHHHHHHHHHHHHHHHHH

    MODES         EIGV          FREQUENCIES     IRREP  IR   INTENS    RAMAN
             (HARTREE**2)   (CM**-1)     (THZ)             (KM/MOL)
    1-   1   -0.2412E-19      0.0000    0.0000  (Bu )   A (     0.00)   I
    2-   2    0.2320E-20      0.0000    0.0000  (Bu )   A (     0.00)   I
    3-   3    0.6632E-20      0.0000    0.0000  (Au )   A (     0.00)   I
    4-   4    0.2243E-07     32.8733    0.9855  (Ag )   I (     0.00)   A
    5-   5    0.3737E-07     42.4247    1.2719  (Bg )   I (     0.00)   A
    6-   6    0.4734E-07     47.7509    1.4315  (Au )   A (     0.00)   I
    7-   7    0.6149E-07     54.4217    1.6315  (Ag )   I (     0.00)   A
    8-   8    0.6551E-07     56.1754    1.6841  (Bu )   A (     0.00)   I
    9-   9    0.8065E-07     62.3284    1.8686  (Au )   A (     0.00)   I
   10-  10    0.1072E-06     71.8649    2.1545  (Ag )   I (     0.00)   A
   11-  11    0.1153E-06     74.5101    2.2338  (Bg )   I (     0.00)   A
   12-  12    0.1163E-06     74.8515    2.2440  (Au )   A (     0.00)   I
   13-  13    0.1328E-06     79.9860    2.3979  (Bu )   A (     0.00)   I
   14-  14    0.1489E-06     84.6916    2.5390  (Ag )   I (     0.00)   A
   15-  15    0.1520E-06     85.5809    2.5657  (Bg )   I (     0.00)   A
   16-  16    0.1793E-06     92.9443    2.7864  (Bg )   I (     0.00)   A
   17-  17    0.1903E-06     95.7418    2.8703  (Au )   A (     0.00)   I
   18-  18    0.2048E-06     99.3309    2.9779  (Ag )   I (     0.00)   A
   19-  19    0.2064E-06     99.7129    2.9893  (Bg )   I (     0.00)   A
   20-  20    0.2191E-06    102.7426    3.0801  (Bu )   A (     0.00)   I
   21-  21    0.2299E-06    105.2233    3.1545  (Au )   A (     0.00)   I
   22-  22    0.2341E-06    106.1810    3.1832  (Ag )   I (     0.00)   A
   23-  23    0.2547E-06    110.7632    3.3206  (Bu )   A (     0.00)   I
   24-  24    0.2607E-06    112.0689    3.3597  (Bg )   I (     0.00)   A
   25-  25    0.2843E-06    117.0164    3.5081  (Au )   A (     0.00)   I
   26-  26    0.2865E-06    117.4776    3.5219  (Ag )   I (     0.00)   A
   27-  27    0.2979E-06    119.7932    3.5913  (Bu )   A (     0.00)   I
   28-  28    0.3281E-06    125.7081    3.7686  (Bg )   I (     0.00)   A
   29-  29    0.3790E-06    135.1208    4.0508  (Bu )   A (     0.00)   I
   30-  30    0.4253E-06    143.1223    4.2907  (Bg )   I (     0.00)   A
   31-  31    0.4330E-06    144.4211    4.3296  (Au )   A (     0.00)   I
   32-  32    0.5051E-06    155.9888    4.6764  (Ag )   I (     0.00)   A
   33-  33    0.5112E-06    156.9189    4.7043  (Bu )   A (     0.00)   I
   34-  34    0.5182E-06    157.9943    4.7365  (Ag )   I (     0.00)   A
   35-  35    0.5289E-06    159.6155    4.7852  (Au )   A (     0.00)   I
   36-  36    0.5379E-06    160.9713    4.8258  (Bg )   I (     0.00)   A
   37-  37    0.6880E-06    182.0481    5.4577  (Au )   A (     0.00)   I
   38-  38    0.7099E-06    184.9158    5.5436  (Bg )   I (     0.00)   A
   39-  39    0.8470E-06    201.9940    6.0556  (Ag )   I (     0.00)   A
   40-  40    0.8899E-06    207.0457    6.2071  (Bu )   A (     0.00)   I
   41-  41    0.1057E-05    225.6349    6.7644  (Ag )   I (     0.00)   A
   42-  42    0.1097E-05    229.9251    6.8930  (Bu )   A (     0.00)   I
   43-  43    0.1105E-05    230.7107    6.9165  (Bg )   I (     0.00)   A
   44-  44    0.1141E-05    234.4783    7.0295  (Au )   A (     0.00)   I
   45-  45    0.2447E-05    343.3290   10.2927  (Au )   A (     0.00)   I
   46-  46    0.2507E-05    347.5363   10.4189  (Ag )   I (     0.00)   A
   47-  47    0.2512E-05    347.8264   10.4276  (Bg )   I (     0.00)   A
   48-  48    0.2536E-05    349.4816   10.4772  (Bu )   A (     0.00)   I
   49-  49    0.2682E-05    359.4072   10.7748  (Ag )   I (     0.00)   A
   50-  50    0.2703E-05    360.8406   10.8177  (Bu )   A (     0.00)   I
   51-  51    0.3065E-05    384.2485   11.5195  (Bg )   I (     0.00)   A
   52-  52    0.3093E-05    386.0018   11.5720  (Au )   A (     0.00)   I
   53-  53    0.3550E-05    413.5301   12.3973  (Au )   A (     0.00)   I
   54-  54    0.3575E-05    414.9872   12.4410  (Bg )   I (     0.00)   A
   55-  55    0.3601E-05    416.4737   12.4856  (Bu )   A (     0.00)   I
   56-  56    0.3634E-05    418.3868   12.5429  (Ag )   I (     0.00)   A
   57-  57    0.3917E-05    434.3554   13.0216  (Ag )   I (     0.00)   A
   58-  58    0.3969E-05    437.2412   13.1082  (Bg )   I (     0.00)   A
   59-  59    0.3974E-05    437.5309   13.1168  (Bu )   A (     0.00)   I
   60-  60    0.4012E-05    439.6313   13.1798  (Au )   A (     0.00)   I
   61-  61    0.4881E-05    484.8616   14.5358  (Bg )   I (     0.00)   A
   62-  62    0.4932E-05    487.4108   14.6122  (Au )   A (     0.00)   I
   63-  63    0.5091E-05    495.2292   14.8466  (Bu )   A (     0.00)   I
   64-  64    0.5099E-05    495.5874   14.8573  (Ag )   I (     0.00)   A
   65-  65    0.5776E-05    527.4821   15.8135  (Bu )   A (     0.00)   I
   66-  66    0.5787E-05    527.9699   15.8281  (Au )   A (     0.00)   I
   67-  67    0.5806E-05    528.8595   15.8548  (Bg )   I (     0.00)   A
   68-  68    0.5807E-05    528.8702   15.8551  (Ag )   I (     0.00)   A
   69-  69    0.6331E-05    552.2116   16.5549  (Ag )   I (     0.00)   A
   70-  70    0.6461E-05    557.8546   16.7241  (Bu )   A (     0.00)   I
   71-  71    0.6508E-05    559.8779   16.7847  (Au )   A (     0.00)   I
   72-  72    0.6525E-05    560.6311   16.8073  (Bg )   I (     0.00)   A
   73-  73    0.8550E-05    641.7369   19.2388  (Ag )   I (     0.00)   A
   74-  74    0.8571E-05    642.5584   19.2634  (Au )   A (     0.00)   I
   75-  75    0.8605E-05    643.8199   19.3012  (Bu )   A (     0.00)   I
   76-  76    0.8656E-05    645.7306   19.3585  (Bg )   I (     0.00)   A
   77-  77    0.8926E-05    655.7281   19.6582  (Bg )   I (     0.00)   A
   78-  78    0.8975E-05    657.5191   19.7119  (Au )   A (     0.00)   I
   79-  79    0.9039E-05    659.8489   19.7818  (Bu )   A (     0.00)   I
   80-  80    0.9115E-05    662.6114   19.8646  (Ag )   I (     0.00)   A
   81-  81    0.9715E-05    684.0680   20.5078  (Bu )   A (     0.00)   I
   82-  82    0.9733E-05    684.7288   20.5277  (Au )   A (     0.00)   I
   83-  83    0.9743E-05    685.0514   20.5373  (Ag )   I (     0.00)   A
   84-  84    0.9751E-05    685.3465   20.5462  (Bg )   I (     0.00)   A
   85-  85    0.1167E-04    749.8111   22.4788  (Au )   A (     0.00)   I
   86-  86    0.1170E-04    750.7652   22.5074  (Ag )   I (     0.00)   A
   87-  87    0.1172E-04    751.4847   22.5289  (Bg )   I (     0.00)   A
   88-  88    0.1173E-04    751.6215   22.5330  (Bu )   A (     0.00)   I
   89-  89    0.1190E-04    757.0667   22.6963  (Au )   A (     0.00)   I
   90-  90    0.1196E-04    758.9588   22.7530  (Ag )   I (     0.00)   A
   91-  91    0.1209E-04    763.2282   22.8810  (Bu )   A (     0.00)   I
   92-  92    0.1211E-04    763.7100   22.8954  (Bg )   I (     0.00)   A
   93-  93    0.1234E-04    771.1038   23.1171  (Ag )   I (     0.00)   A
   94-  94    0.1252E-04    776.5721   23.2810  (Au )   A (     0.00)   I
   95-  95    0.1280E-04    785.2347   23.5407  (Bu )   A (     0.00)   I
   96-  96    0.1301E-04    791.7794   23.7369  (Bg )   I (     0.00)   A
   97-  97    0.1481E-04    844.5551   25.3191  (Ag )   I (     0.00)   A
   98-  98    0.1484E-04    845.4768   25.3468  (Bu )   A (     0.00)   I
   99-  99    0.1489E-04    846.8234   25.3871  (Bg )   I (     0.00)   A
  100- 100    0.1491E-04    847.5021   25.4075  (Au )   A (     0.00)   I
  101- 101    0.1514E-04    853.9562   25.6010  (Bg )   I (     0.00)   A
  102- 102    0.1532E-04    859.0709   25.7543  (Au )   A (     0.00)   I
  103- 103    0.1545E-04    862.7217   25.8637  (Bu )   A (     0.00)   I
  104- 104    0.1553E-04    864.9755   25.9313  (Ag )   I (     0.00)   A
  105- 105    0.1612E-04    881.2790   26.4201  (Ag )   I (     0.00)   A
  106- 106    0.1617E-04    882.4256   26.4545  (Bg )   I (     0.00)   A
  107- 107    0.1628E-04    885.6240   26.5503  (Bu )   A (     0.00)   I
  108- 108    0.1641E-04    889.0259   26.6523  (Au )   A (     0.00)   I
  109- 109    0.1718E-04    909.5714   27.2683  (Bu )   A (     0.00)   I
  110- 110    0.1720E-04    910.2819   27.2896  (Ag )   I (     0.00)   A
  111- 111    0.1726E-04    911.7218   27.3327  (Au )   A (     0.00)   I
  112- 112    0.1729E-04    912.6305   27.3600  (Bg )   I (     0.00)   A
  113- 113    0.1966E-04    973.2121   29.1762  (Bg )   I (     0.00)   A
  114- 114    0.1972E-04    974.6130   29.2182  (Au )   A (     0.00)   I
  115- 115    0.1981E-04    976.9390   29.2879  (Ag )   I (     0.00)   A
  116- 116    0.1991E-04    979.2650   29.3576  (Bu )   A (     0.00)   I
  117- 117    0.2064E-04    997.0171   29.8898  (Ag )   I (     0.00)   A
  118- 118    0.2089E-04   1003.2132   30.0756  (Bg )   I (     0.00)   A
  119- 119    0.2094E-04   1004.2864   30.1078  (Bu )   A (     0.00)   I
  120- 120    0.2122E-04   1010.9652   30.3080  (Au )   A (     0.00)   I
  121- 121    0.2178E-04   1024.2025   30.7048  (Au )   A (     0.00)   I
  122- 122    0.2180E-04   1024.8324   30.7237  (Bg )   I (     0.00)   A
  123- 123    0.2185E-04   1025.8408   30.7539  (Ag )   I (     0.00)   A
  124- 124    0.2191E-04   1027.3541   30.7993  (Bu )   A (     0.00)   I
  125- 125    0.2340E-04   1061.7347   31.8300  (Au )   A (     0.00)   I
  126- 126    0.2341E-04   1061.8334   31.8330  (Bu )   A (     0.00)   I
  127- 127    0.2343E-04   1062.3222   31.8476  (Ag )   I (     0.00)   A
  128- 128    0.2347E-04   1063.2708   31.8761  (Bg )   I (     0.00)   A
  129- 129    0.2406E-04   1076.5503   32.2742  (Bg )   I (     0.00)   A
  130- 130    0.2415E-04   1078.6167   32.3361  (Au )   A (     0.00)   I
  131- 131    0.2417E-04   1079.0471   32.3490  (Bu )   A (     0.00)   I
  132- 132    0.2421E-04   1079.8207   32.3722  (Ag )   I (     0.00)   A
  133- 133    0.2477E-04   1092.3258   32.7471  (Ag )   I (     0.00)   A
  134- 134    0.2483E-04   1093.6201   32.7859  (Au )   A (     0.00)   I
  135- 135    0.2491E-04   1095.4196   32.8399  (Bg )   I (     0.00)   A
  136- 136    0.2499E-04   1097.1801   32.8926  (Bu )   A (     0.00)   I
  137- 137    0.2874E-04   1176.6884   35.2762  (Ag )   I (     0.00)   A
  138- 138    0.2897E-04   1181.2439   35.4128  (Bg )   I (     0.00)   A
  139- 139    0.2903E-04   1182.5256   35.4512  (Bu )   A (     0.00)   I
  140- 140    0.2914E-04   1184.7345   35.5174  (Au )   A (     0.00)   I
  141- 141    0.3212E-04   1243.8956   37.2911  (Ag )   I (     0.00)   A
  142- 142    0.3215E-04   1244.4866   37.3088  (Bg )   I (     0.00)   A
  143- 143    0.3228E-04   1246.9191   37.3817  (Au )   A (     0.00)   I
  144- 144    0.3248E-04   1250.7645   37.4970  (Bu )   A (     0.00)   I
  145- 145    0.3530E-04   1304.0464   39.0943  (Ag )   I (     0.00)   A
  146- 146    0.3538E-04   1305.5196   39.1385  (Bg )   I (     0.00)   A
  147- 147    0.3547E-04   1307.1183   39.1864  (Bu )   A (     0.00)   I
  148- 148    0.3558E-04   1309.0880   39.2455  (Au )   A (     0.00)   I
  149- 149    0.3626E-04   1321.5479   39.6190  (Ag )   I (     0.00)   A
  150- 150    0.3633E-04   1322.9225   39.6602  (Au )   A (     0.00)   I
[...]
            Z     0.0001    0.0002   -0.0000   -0.0000   -0.0000   -0.0000
 AT.  22 C  X    -0.0001   -0.0000   -0.0000    0.0000    0.0000    0.0000
            Y     0.0002   -0.0001    0.0000   -0.0000   -0.0000    0.0000
            Z    -0.0001    0.0002   -0.0000    0.0000    0.0000   -0.0000
 AT.  23 C  X     0.0001    0.0000   -0.0000    0.0000   -0.0000   -0.0000
            Y     0.0002   -0.0001   -0.0000    0.0000   -0.0000    0.0000
            Z     0.0001   -0.0002   -0.0000    0.0000   -0.0000    0.0000
 AT.  24 C  X    -0.0001    0.0000   -0.0000   -0.0000    0.0000   -0.0000
            Y     0.0002    0.0001    0.0000    0.0000   -0.0000   -0.0000
            Z    -0.0001   -0.0002   -0.0000   -0.0000    0.0000    0.0000
 AT.  25 C  X     0.0000    0.0000    0.0001    0.0000    0.0000    0.0001
            Y    -0.0002   -0.0001    0.0002    0.0002    0.0001    0.0001
            Z    -0.0002   -0.0001    0.0002    0.0002    0.0001    0.0001
 AT.  26 C  X    -0.0000    0.0000    0.0001   -0.0000   -0.0000    0.0001
            Y    -0.0002    0.0001   -0.0002    0.0002    0.0001   -0.0001
            Z     0.0002   -0.0001    0.0002   -0.0002   -0.0001    0.0001
 AT.  27 C  X     0.0000   -0.0000    0.0001   -0.0000    0.0000   -0.0001
            Y    -0.0002    0.0001    0.0002   -0.0002    0.0001   -0.0001
            Z    -0.0002    0.0001    0.0002   -0.0002    0.0001   -0.0001
 AT.  28 C  X    -0.0000   -0.0000    0.0001    0.0000   -0.0000   -0.0001
            Y    -0.0002   -0.0001   -0.0002   -0.0002    0.0001    0.0001
            Z     0.0002    0.0001    0.0002    0.0002   -0.0001   -0.0001
 AT.  29 C  X     0.0001    0.0000    0.0000    0.0000   -0.0000   -0.0000
            Y     0.0001    0.0001   -0.0000   -0.0000   -0.0001   -0.0000
            Z     0.0001    0.0001   -0.0000   -0.0000   -0.0001   -0.0000
 AT.  30 C  X    -0.0001    0.0000    0.0000   -0.0000    0.0000   -0.0000
            Y     0.0001   -0.0001    0.0000   -0.0000   -0.0001    0.0000
            Z    -0.0001    0.0001   -0.0000    0.0000    0.0001   -0.0000
 AT.  31 C  X     0.0001   -0.0000    0.0000   -0.0000   -0.0000    0.0000
            Y     0.0001   -0.0001   -0.0000    0.0000   -0.0001    0.0000
            Z     0.0001   -0.0001   -0.0000    0.0000   -0.0001    0.0000
 AT.  32 C  X    -0.0001   -0.0000    0.0000    0.0000    0.0000    0.0000
            Y     0.0001    0.0001    0.0000    0.0000   -0.0001   -0.0000
            Z    -0.0001   -0.0001   -0.0000   -0.0000    0.0001    0.0000
 AT.  33 C  X     0.0000   -0.0000   -0.0000    0.0000    0.0000    0.0000
            Y    -0.0000   -0.0000    0.0000    0.0000    0.0000    0.0000
            Z    -0.0000    0.0000    0.0000   -0.0000    0.0000    0.0000
 AT.  34 C  X    -0.0000   -0.0000   -0.0000   -0.0000   -0.0000    0.0000
            Y    -0.0000    0.0000   -0.0000    0.0000    0.0000   -0.0000
            Z     0.0000    0.0000    0.0000    0.0000   -0.0000    0.0000
 AT.  35 C  X     0.0000    0.0000   -0.0000   -0.0000    0.0000   -0.0000
            Y    -0.0000    0.0000    0.0000   -0.0000    0.0000   -0.0000
            Z    -0.0000   -0.0000    0.0000    0.0000    0.0000   -0.0000
 AT.  36 C  X    -0.0000    0.0000   -0.0000    0.0000   -0.0000   -0.0000
            Y    -0.0000   -0.0000   -0.0000   -0.0000    0.0000    0.0000
            Z     0.0000   -0.0000    0.0000   -0.0000   -0.0000   -0.0000
 AT.  37 C  X     0.0008    0.0008    0.0001    0.0001   -0.0000   -0.0000
            Y    -0.0000   -0.0001    0.0000    0.0000    0.0000    0.0000
            Z    -0.0002   -0.0003    0.0000    0.0000    0.0000    0.0000
 AT.  38 C  X    -0.0008    0.0008    0.0001   -0.0001    0.0000   -0.0000
            Y    -0.0000    0.0001   -0.0000    0.0000    0.0000   -0.0000
            Z     0.0002   -0.0003    0.0000   -0.0000   -0.0000    0.0000
 AT.  39 C  X     0.0008   -0.0008    0.0001   -0.0001   -0.0000    0.0000
            Y    -0.0000    0.0001    0.0000   -0.0000    0.0000   -0.0000
            Z    -0.0002    0.0003    0.0000   -0.0000    0.0000   -0.0000
 AT.  40 C  X    -0.0008   -0.0008    0.0001    0.0001    0.0000    0.0000
            Y    -0.0000   -0.0001   -0.0000   -0.0000    0.0000    0.0000
            Z     0.0002    0.0003    0.0000    0.0000   -0.0000   -0.0000
 AT.  41 C  X     0.0001    0.0001   -0.0000   -0.0000    0.0000    0.0000
            Y    -0.0000    0.0002    0.0000   -0.0000    0.0000   -0.0000
            Z     0.0001    0.0000   -0.0000   -0.0000    0.0000    0.0000
 AT.  42 C  X    -0.0001    0.0001   -0.0000    0.0000   -0.0000    0.0000
            Y    -0.0000   -0.0002   -0.0000   -0.0000    0.0000    0.0000
            Z    -0.0001    0.0000   -0.0000    0.0000   -0.0000    0.0000
 AT.  43 C  X     0.0001   -0.0001   -0.0000    0.0000    0.0000   -0.0000
            Y    -0.0000   -0.0002    0.0000    0.0000    0.0000    0.0000
            Z     0.0001   -0.0000   -0.0000    0.0000    0.0000   -0.0000
 AT.  44 C  X    -0.0001   -0.0001   -0.0000   -0.0000   -0.0000   -0.0000
            Y    -0.0000    0.0002   -0.0000    0.0000    0.0000   -0.0000
            Z    -0.0001   -0.0000   -0.0000   -0.0000   -0.0000   -0.0000
 AT.  45 H  X    -0.0004    0.0003   -0.0004    0.0001    0.0003   -0.0003
            Y    -0.0002    0.0003   -0.0002    0.0000    0.0001   -0.0003
            Z     0.0003    0.0002    0.0000    0.0001   -0.0001   -0.0001
 AT.  46 H  X     0.0004    0.0003   -0.0004   -0.0001   -0.0003   -0.0003
            Y    -0.0002   -0.0003    0.0002    0.0000    0.0001    0.0003
            Z    -0.0003    0.0002    0.0000   -0.0001    0.0001   -0.0001
 AT.  47 H  X    -0.0004   -0.0003   -0.0004   -0.0001    0.0003    0.0003
            Y    -0.0002   -0.0003   -0.0002   -0.0000    0.0001    0.0003
            Z     0.0003   -0.0002    0.0000   -0.0001   -0.0001    0.0001
 AT.  48 H  X     0.0004   -0.0003   -0.0004    0.0001   -0.0003    0.0003
            Y    -0.0002    0.0003    0.0002   -0.0000    0.0001   -0.0003
            Z    -0.0003   -0.0002    0.0000    0.0001    0.0001    0.0001
 AT.  49 H  X    -0.0004    0.0007   -0.0000    0.0005    0.0003   -0.0003
            Y    -0.0002    0.0002   -0.0000   -0.0000    0.0000    0.0000
            Z     0.0001   -0.0005   -0.0000   -0.0003   -0.0001    0.0002
 AT.  50 H  X     0.0004    0.0007   -0.0000   -0.0005   -0.0003   -0.0003
            Y    -0.0002   -0.0002    0.0000   -0.0000    0.0000   -0.0000
            Z    -0.0001   -0.0005   -0.0000    0.0003    0.0001    0.0002
 AT.  51 H  X    -0.0004   -0.0007   -0.0000   -0.0005    0.0003    0.0003
            Y    -0.0002   -0.0002   -0.0000    0.0000    0.0000   -0.0000
            Z     0.0001    0.0005   -0.0000    0.0003   -0.0001   -0.0002
 AT.  52 H  X     0.0004   -0.0007   -0.0000    0.0005   -0.0003    0.0003
            Y    -0.0002    0.0002    0.0000    0.0000    0.0000    0.0000
            Z    -0.0001    0.0005   -0.0000   -0.0003    0.0001   -0.0002
 AT.  53 H  X    -0.0011   -0.0003    0.0000   -0.0001    0.0003    0.0001
            Y    -0.0009   -0.0003    0.0000    0.0000    0.0002    0.0001
            Z    -0.0001    0.0000    0.0000   -0.0000    0.0001    0.0000
 AT.  54 H  X     0.0011   -0.0003    0.0000    0.0001   -0.0003    0.0001
            Y    -0.0009    0.0003   -0.0000    0.0000    0.0002   -0.0001
            Z     0.0001    0.0000    0.0000    0.0000   -0.0001    0.0000
 AT.  55 H  X    -0.0011    0.0003    0.0000    0.0001    0.0003   -0.0001
            Y    -0.0009    0.0003    0.0000   -0.0000    0.0002   -0.0001
            Z    -0.0001   -0.0000    0.0000    0.0000    0.0001   -0.0000
 AT.  56 H  X     0.0011    0.0003    0.0000   -0.0001   -0.0003   -0.0001
            Y    -0.0009   -0.0003   -0.0000   -0.0000    0.0002    0.0001
            Z     0.0001   -0.0000    0.0000   -0.0000   -0.0001   -0.0000
 AT.  57 H  X    -0.0002    0.0003    0.0004    0.0002   -0.0000   -0.0003
            Y    -0.0001   -0.0001   -0.0001   -0.0000   -0.0000    0.0000
            Z     0.0001   -0.0004   -0.0003   -0.0003    0.0000    0.0002
 AT.  58 H  X     0.0002    0.0003    0.0004   -0.0002    0.0000   -0.0003
            Y    -0.0001    0.0001    0.0001   -0.0000   -0.0000   -0.0000
            Z    -0.0001   -0.0004   -0.0003    0.0003   -0.0000    0.0002
 AT.  59 H  X    -0.0002   -0.0003    0.0004   -0.0002   -0.0000    0.0003
            Y    -0.0001    0.0001   -0.0001    0.0000   -0.0000   -0.0000
            Z     0.0001    0.0004   -0.0003    0.0003    0.0000   -0.0002
 AT.  60 H  X     0.0002   -0.0003    0.0004    0.0002    0.0000    0.0003
            Y    -0.0001   -0.0001    0.0001    0.0000   -0.0000    0.0000
            Z    -0.0001    0.0004   -0.0003   -0.0003   -0.0000   -0.0002
 AT.  61 H  X     0.0792    0.0789   -0.0102   -0.0107   -0.0130   -0.0135
            Y     0.0342    0.0343   -0.0045   -0.0046   -0.0056   -0.0059
            Z     0.0209    0.0211   -0.0031   -0.0032   -0.0037   -0.0041
 AT.  62 H  X    -0.0792    0.0789   -0.0102    0.0107    0.0130   -0.0135
            Y     0.0342   -0.0343    0.0045   -0.0046   -0.0056    0.0059
            Z    -0.0209    0.0211   -0.0031    0.0032    0.0037   -0.0041
 AT.  63 H  X     0.0792   -0.0789   -0.0102    0.0107   -0.0130    0.0135
            Y     0.0342   -0.0343   -0.0045    0.0046   -0.0056    0.0059
            Z     0.0209   -0.0211   -0.0031    0.0032   -0.0037    0.0041
 AT.  64 H  X    -0.0792   -0.0789   -0.0102   -0.0107    0.0130    0.0135
            Y     0.0342    0.0343    0.0045    0.0046   -0.0056   -0.0059
            Z    -0.0209   -0.0211   -0.0031   -0.0032    0.0037    0.0041
 AT.  65 H  X    -0.0139   -0.0146    0.0807    0.0807   -0.0803   -0.0801
            Y     0.0022    0.0026   -0.0128   -0.0128    0.0127    0.0126
            Z     0.0047    0.0046   -0.0302   -0.0302    0.0300    0.0302
 AT.  66 H  X     0.0139   -0.0146    0.0807   -0.0807    0.0803   -0.0801
            Y     0.0022   -0.0026    0.0128   -0.0128    0.0127   -0.0126
            Z    -0.0047    0.0046   -0.0302    0.0302   -0.0300    0.0302
 AT.  67 H  X    -0.0139    0.0146    0.0807   -0.0807   -0.0803    0.0801
            Y     0.0022   -0.0026   -0.0128    0.0128    0.0127   -0.0126
            Z     0.0047   -0.0046   -0.0302    0.0302    0.0300   -0.0302
 AT.  68 H  X     0.0139    0.0146    0.0807    0.0807    0.0803    0.0801
            Y     0.0022    0.0026    0.0128    0.0128    0.0127    0.0126
            Z    -0.0047   -0.0046   -0.0302   -0.0302   -0.0300   -0.0302
 AT.  69 H  X    -0.0005   -0.0003    0.0001   -0.0000   -0.0000   -0.0000
            Y     0.0002   -0.0000    0.0000    0.0000   -0.0001    0.0001
            Z    -0.0008   -0.0005    0.0002    0.0001   -0.0001   -0.0002
 AT.  70 H  X     0.0005   -0.0003    0.0001    0.0000    0.0000   -0.0000
            Y     0.0002    0.0000   -0.0000    0.0000   -0.0001   -0.0001
            Z     0.0008   -0.0005    0.0002   -0.0001    0.0001   -0.0002
 AT.  71 H  X    -0.0005    0.0003    0.0001    0.0000   -0.0000    0.0000
            Y     0.0002    0.0000    0.0000   -0.0000   -0.0001   -0.0001
            Z    -0.0008    0.0005    0.0002   -0.0001   -0.0001    0.0002
 AT.  72 H  X     0.0005    0.0003    0.0001   -0.0000    0.0000    0.0000
            Y     0.0002   -0.0000   -0.0000   -0.0000   -0.0001    0.0001
            Z     0.0008    0.0005    0.0002    0.0001    0.0001    0.0002
 AT.  73 H  X    -0.0009   -0.0008    0.0007    0.0006   -0.0006   -0.0007
            Y     0.0000    0.0002    0.0002    0.0002   -0.0002   -0.0003
            Z     0.0005    0.0004    0.0001    0.0001   -0.0002   -0.0001
 AT.  74 H  X     0.0009   -0.0008    0.0007   -0.0006    0.0006   -0.0007
            Y     0.0000   -0.0002   -0.0002    0.0002   -0.0002    0.0003
            Z    -0.0005    0.0004    0.0001   -0.0001    0.0002   -0.0001
 AT.  75 H  X    -0.0009    0.0008    0.0007   -0.0006   -0.0006    0.0007
            Y     0.0000   -0.0002    0.0002   -0.0002   -0.0002    0.0003
            Z     0.0005   -0.0004    0.0001   -0.0001   -0.0002    0.0001
 AT.  76 H  X     0.0009    0.0008    0.0007    0.0006    0.0006    0.0007
            Y     0.0000    0.0002   -0.0002   -0.0002   -0.0002   -0.0003
            Z    -0.0005   -0.0004    0.0001    0.0001    0.0002    0.0001
 AT.  77 H  X     0.0001   -0.0004   -0.0001    0.0001   -0.0001    0.0002
            Y     0.0004   -0.0017   -0.0003    0.0001   -0.0002    0.0003
            Z     0.0001    0.0003    0.0001    0.0000   -0.0001   -0.0001
 AT.  78 H  X    -0.0001   -0.0004   -0.0001   -0.0001    0.0001    0.0002
            Y     0.0004    0.0017    0.0003    0.0001   -0.0002   -0.0003
            Z    -0.0001    0.0003    0.0001   -0.0000    0.0001   -0.0001
 AT.  79 H  X     0.0001    0.0004   -0.0001   -0.0001   -0.0001   -0.0002
            Y     0.0004    0.0017   -0.0003   -0.0001   -0.0002   -0.0003
            Z     0.0001   -0.0003    0.0001   -0.0000   -0.0001    0.0001
 AT.  80 H  X    -0.0001    0.0004   -0.0001    0.0001    0.0001   -0.0002
            Y     0.0004   -0.0017    0.0003   -0.0001   -0.0002    0.0003
            Z    -0.0001   -0.0003    0.0001    0.0000    0.0001    0.0001

 *******************************************************************************

 VIBRATIONAL TEMPERATURES (K) [MODE NUMBER;IRREP]

 TO MODES
    47.3 [   4;Ag ]    61.0 [   5;Bg ]    68.7 [   6;Au ]    78.3 [   7;Ag ]
    80.8 [   8;Bu ]    89.7 [   9;Au ]   103.4 [  10;Ag ]   107.2 [  11;Bg ]
   107.7 [  12;Au ]   115.1 [  13;Bu ]   121.9 [  14;Ag ]   123.1 [  15;Bg ]
   133.7 [  16;Bg ]   137.8 [  17;Au ]   142.9 [  18;Ag ]   143.5 [  19;Bg ]
   147.8 [  20;Bu ]   151.4 [  21;Au ]   152.8 [  22;Ag ]   159.4 [  23;Bu ]
   161.2 [  24;Bg ]   168.4 [  25;Au ]   169.0 [  26;Ag ]   172.4 [  27;Bu ]
   180.9 [  28;Bg ]   194.4 [  29;Bu ]   205.9 [  30;Bg ]   207.8 [  31;Au ]
   224.4 [  32;Ag ]   225.8 [  33;Bu ]   227.3 [  34;Ag ]   229.7 [  35;Au ]
   231.6 [  36;Bg ]   261.9 [  37;Au ]   266.1 [  38;Bg ]   290.6 [  39;Ag ]
   297.9 [  40;Bu ]   324.6 [  41;Ag ]   330.8 [  42;Bu ]   331.9 [  43;Bg ]
   337.4 [  44;Au ]   494.0 [  45;Au ]   500.0 [  46;Ag ]   500.4 [  47;Bg ]
   502.8 [  48;Bu ]   517.1 [  49;Ag ]   519.2 [  50;Bu ]   552.8 [  51;Bg ]
   555.4 [  52;Au ]   595.0 [  53;Au ]   597.1 [  54;Bg ]   599.2 [  55;Bu ]
   602.0 [  56;Ag ]   624.9 [  57;Ag ]   629.1 [  58;Bg ]   629.5 [  59;Bu ]
   632.5 [  60;Au ]   697.6 [  61;Bg ]   701.3 [  62;Au ]   712.5 [  63;Bu ]
   713.0 [  64;Ag ]   758.9 [  65;Bu ]   759.6 [  66;Au ]   760.9 [  67;Bg ]
   760.9 [  68;Ag ]   794.5 [  69;Ag ]   802.6 [  70;Bu ]   805.5 [  71;Au ]
   806.6 [  72;Bg ]   923.3 [  73;Ag ]   924.5 [  74;Au ]   926.3 [  75;Bu ]
   929.1 [  76;Bg ]   943.4 [  77;Bg ]   946.0 [  78;Au ]   949.4 [  79;Bu ]
   953.3 [  80;Ag ]   984.2 [  81;Bu ]   985.2 [  82;Au ]   985.6 [  83;Ag ]
   986.1 [  84;Bg ]  1078.8 [  85;Au ]  1080.2 [  86;Ag ]  1081.2 [  87;Bg ]
  1081.4 [  88;Bu ]  1089.2 [  89;Au ]  1092.0 [  90;Ag ]  1098.1 [  91;Bu ]
  1098.8 [  92;Bg ]  1109.4 [  93;Ag ]  1117.3 [  94;Au ]  1129.8 [  95;Bu ]
  1139.2 [  96;Bg ]  1215.1 [  97;Ag ]  1216.5 [  98;Bu ]  1218.4 [  99;Bg ]
  1219.4 [ 100;Au ]  1228.7 [ 101;Bg ]  1236.0 [ 102;Au ]  1241.3 [ 103;Bu ]
  1244.5 [ 104;Ag ]  1268.0 [ 105;Ag ]  1269.6 [ 106;Bg ]  1274.2 [ 107;Bu ]
  1279.1 [ 108;Au ]  1308.7 [ 109;Bu ]  1309.7 [ 110;Ag ]  1311.8 [ 111;Au ]
  1313.1 [ 112;Bg ]  1400.2 [ 113;Bg ]  1402.2 [ 114;Au ]  1405.6 [ 115;Ag ]
  1408.9 [ 116;Bu ]  1434.5 [ 117;Ag ]  1443.4 [ 118;Bg ]  1444.9 [ 119;Bu ]
  1454.6 [ 120;Au ]  1473.6 [ 121;Au ]  1474.5 [ 122;Bg ]  1476.0 [ 123;Ag ]
  1478.1 [ 124;Bu ]  1527.6 [ 125;Au ]  1527.7 [ 126;Bu ]  1528.4 [ 127;Ag ]
  1529.8 [ 128;Bg ]  1548.9 [ 129;Bg ]  1551.9 [ 130;Au ]  1552.5 [ 131;Bu ]
  1553.6 [ 132;Ag ]  1571.6 [ 133;Ag ]  1573.5 [ 134;Au ]  1576.1 [ 135;Bg ]
  1578.6 [ 136;Bu ]  1693.0 [ 137;Ag ]  1699.5 [ 138;Bg ]  1701.4 [ 139;Bu ]
  1704.6 [ 140;Au ]  1789.7 [ 141;Ag ]  1790.5 [ 142;Bg ]  1794.0 [ 143;Au ]
  1799.6 [ 144;Bu ]  1876.2 [ 145;Ag ]  1878.3 [ 146;Bg ]  1880.6 [ 147;Bu ]
  1883.5 [ 148;Au ]  1901.4 [ 149;Ag ]  1903.4 [ 150;Au ]  1904.7 [ 151;Bg ]
  1907.9 [ 152;Bu ]  1941.9 [ 153;Bg ]  1943.0 [ 154;Au ]  1948.6 [ 155;Ag ]
  1953.5 [ 156;Bu ]  1961.1 [ 157;Bg ]  1962.3 [ 158;Ag ]  1964.8 [ 159;Au ]
  1968.4 [ 160;Bu ]  2033.9 [ 161;Ag ]  2042.4 [ 162;Au ]  2045.1 [ 163;Bu ]
  2048.2 [ 164;Bg ]  2091.2 [ 165;Bu ]  2091.5 [ 166;Ag ]  2093.1 [ 167;Au ]
  2095.1 [ 168;Bg ]  2104.2 [ 169;Ag ]  2107.7 [ 170;Bu ]  2111.1 [ 171;Bg ]
  2113.5 [ 172;Au ]  2190.3 [ 173;Bu ]  2191.0 [ 174;Au ]  2192.8 [ 175;Ag ]
  2196.8 [ 176;Au ]  2197.8 [ 177;Bg ]  2200.2 [ 178;Bg ]  2206.8 [ 179;Bu ]
  2209.2 [ 180;Ag ]  2225.2 [ 181;Bu ]  2225.5 [ 182;Au ]  2234.0 [ 183;Ag ]
  2237.0 [ 184;Bg ]  2316.4 [ 185;Ag ]  2317.4 [ 186;Bu ]  2336.1 [ 187;Bg ]
  2336.9 [ 188;Au ]  2402.4 [ 189;Ag ]  2406.9 [ 190;Bu ]  2408.6 [ 191;Au ]
  2412.8 [ 192;Bg ]  2476.9 [ 193;Bu ]  2477.6 [ 194;Ag ]  2480.2 [ 195;Bg ]
  2481.7 [ 196;Au ]  2509.3 [ 197;Bg ]  2513.5 [ 198;Au ]  2515.9 [ 199;Ag ]
  2523.3 [ 200;Bu ]  2555.3 [ 201;Ag ]  2559.8 [ 202;Au ]  2563.2 [ 203;Bu ]
  2575.7 [ 204;Bg ]  4524.7 [ 205;Au ]  4524.8 [ 206;Bu ]  4524.9 [ 207;Ag ]
  4525.8 [ 208;Bg ]  4652.8 [ 209;Au ]  4653.0 [ 210;Bg ]  4653.0 [ 211;Bu ]
  4653.2 [ 212;Ag ]  4655.1 [ 213;Au ]  4655.4 [ 214;Ag ]  4655.8 [ 215;Bu ]
  4656.1 [ 216;Bg ]  4704.2 [ 217;Au ]  4704.3 [ 218;Bg ]  4704.3 [ 219;Bu ]
  4704.4 [ 220;Ag ]  4718.8 [ 221;Bg ]  4718.9 [ 222;Bu ]  4718.9 [ 223;Ag ]
  4719.1 [ 224;Au ]  4724.5 [ 225;Au ]  4724.9 [ 226;Bu ]  4725.2 [ 227;Ag ]
  4725.3 [ 228;Bg ]  4814.0 [ 229;Bu ]  4814.0 [ 230;Au ]  4822.6 [ 231;Ag ]
  4822.7 [ 232;Bg ]  4937.2 [ 233;Ag ]  4940.0 [ 234;Bu ]  4944.3 [ 235;Au ]
  4950.9 [ 236;Bg ]  5146.8 [ 237;Bu ]  5147.6 [ 238;Ag ]  5151.5 [ 239;Au ]
  5151.7 [ 240;Bg ]

 *******************************************************************************

 HARMONIC VIBRATIONAL CONTRIBUTIONS TO THERMODYNAMIC FUNCTIONS AT GIVEN
 TEMPERATURE AND PRESSURE:

 (EL = ELECTRONIC ENERGY
  E0 = ZERO-POINT ENERGY
  ET = THERMAL CONTRIBUTION TO THE VIBRATIONAL ENERGY
  PV = PRESSURE * VOLUME
  TS = TEMPERATURE * ENTROPY)

                          AU/CELL             EV/CELL                 KJ/MOL
 EL            :   -2057.686888570100  -55992.506842034069    -5402456.16459665
 E0            :       0.669967778259      18.230750079838        1759.00015393


 *******************************************************************************

 THERMODYNAMIC FUNCTIONS WITH VIBRATIONAL CONTRIBUTIONS

 AT (T =  298.15 K, P =   0.10132500E+00 MPA):

                          AU/CELL             EV/CELL                 KJ/MOL
 ET            :       0.040846491785       1.111489548518         107.24244907
 PV            :       0.000017489945       0.000475925602           0.04591984
 TS            :       0.080418311537       2.188293507614         211.13824719
 ET+PV-TS      :      -0.039554329806      -1.076328033494        -103.84987827
 EL+E0+ET+PV-TS:   -2057.056475121648  -55975.352419987721    -5400801.01432099

 OTHER THERMODYNAMIC FUNCTIONS:

                      mHARTREE/(CELL*K)     mEV/(CELL*K)              J/(MOL*K)
 ENTROPY       :       0.269724338544       7.339572388441         708.16115105
 HEAT CAPACITY :       0.253472556659       6.897338920616         665.49210372

 *******************************************************************************
 TTTTTTTTTTTTTTTTTTTTTTTTTTTTTT END         TELAPSE        7.34 TCPU        5.58
 EEEEEEEEEE TERMINATION  DATE 06 03 2022 TIME 11:46:18.2
NODE    0 CPU TIME =         5.577
    TOTAL CPU TIME =      1336.694
Note: The following floating-point exceptions are signalling: IEEE_UNDERFLOW_FLAG IEEE_DENORMAL
