Lmod has detected the following error: The following module(s) are unknown:
"epcc-job-env"

Please check the spelling or version number. Also try "module spider ..."
It is also possible your cache file is out-of-date; it may help to try:
  $ module --ignore-cache load "epcc-job-env"

Also make sure that all modulefiles written in TCL start with the string
#%Module




Warning: You have enabled access to software packages installed
by external parties on ARCHER2 or those that are not fully-supported.
The ARCHER2 CSE service does not test these packages. The service desk
will make reasonable efforts to assist with questions on the use of
these packages but some issues may not be able to be resolved by the
service and they may direct you to seek help from external parties.


         384 PROCESSORS WORKING

         
 *******************************************************************************
 *                                                                             *
 *                               CRYSTAL17                                     *
 *                      public : 1.0.2 - March 1st, 2018 STFC/Archer2 build    *
 *                       HTTP://WWW.CRYSTAL.UNITO.IT                           *
 *                                                                             *
 *                              MAIN AUTHORS                                   *
 *                                                                             *
 *  R. DOVESI(1,11), V.R. SAUNDERS(2), C. ROETTI(1,11), R. ORLANDO(1,11),      *
 *  C.M. ZICOVICH-WILSON(1,3), F. PASCALE(4), B. CIVALLERI(1,11),              *
 *  K. DOLL(5), N.M. HARRISON(2,6), I.J. BUSH(7), Ph. D'ARCO(8),               *
 *  M. LLUNELL(9), M. CAUSA'(10), Y. NOEL(8), L. MASCHIO(1,11), A. ERBA(1,11)  *
 *  M. RE'RAT(14), S. CASASSA(1,11)                                            *
 *                                                                             *
 *        CONTRIBUTIONS TO THE CODE HAVE ALSO BEEN GIVEN BY                    *
 *                                                                             *
 *  M. FERRABONE(1,11), M. DE LA PIERRE(1,11), M. FERRERO(1,11),               *
 *  J. BAIMA(1,11), E. ALBANESE(1,11), M.F. PEINTINGER(12), R. BAST(13),       *
 *  B. KIRTMAN(15), V. LACIVITA(1,11), R. DEMICHELIS(1,16)                     *
 *  G. BRANDEBURG(17), S. SALUSTRO(1,11), G. SANSONE(1,11)                     *
 *  M.T. RUGGIERO(18)                                                          *
 *                                                                             *
 * (1) THEORETICAL CHEMISTRY GROUP - UNIVERSITA' DI TORINO - TORINO (ITALY)    *
 * (2) COMPUTATIONAL SCIENCE & ENGINEERING DEPARTMENT - STFC DARESBURY (UK)    *
 * (3) UNIVERSIDAD AUTONOMA DEL ESTADO DE MORELOS - CUERNAVACA (MEXICO)        *
 * (4) UNIVERSITE' DE LORRAINE - NANCY (FRANCE)                                *
 * (5) UNIVERSITAET STUTTGART- STUTTGART (GERMANY)                             *
 * (6) IMPERIAL COLLEGE - LONDON (UK)                                          *
 * (7) OXFORD E-RESEARCH CENTRE - OXFORD (UK)                                  *
 * (8) UPMC - SORBONNE UNIVERSITES - PARIS (FRANCE)                            *
 * (9) UNIVERSIDAD DE BARCELONA - BARCELONA (SPAIN)                            *
 *(10) UNIVERSITA' DI NAPOLI "FEDERICO II" - NAPOLI (ITALY)                    *
 *(11) NIS - NANOSTRUCTURED INTERFACES AND SURFACES - TORINO (ITALY)           *
 *(12) MPI FUER CHEMISCHE ENERGIEKONVERSION - MUELHEIM AN DER RUHR (GERMANY)   *
 *(13) UNIVERSITY OF TROMSO - TROMSO (NORWAY)                                  *
 *(14) UNIVERSITE' DE PAU ET DES PAYS DE L'ADOUR - PAU (FRANCE)                *
 *(15) UNIVERSITY OF CALIFORNIA SANTA BARBARA - SANTA BARBARA (USA)            *
 *(16) CURTIN UNIVERSITY - PERTH (AUSTRALIA)                                   *
 *(17) UNIVERSITY COLLEGE LONDON - LONDON (UK)                                 *
 *(18) CAMBRIDGE UNIVERSITY - CAMBRIDGE (UK)                                   *
 *                                                                             *
 *******************************************************************************
 EEEEEEEEEE STARTING  DATE 05 03 2022 TIME 21:11:35.3
 F1 vol step9 freq - PBEh-3c                                                     

 GEOMETRY INPUT FROM EXTERNAL FILE (FORTRAN UNIT 34)
 3D - CRYSTAL 

 *******************************************************************************
 LATTICE PARAMETERS  (ANGSTROMS AND DEGREES) - PRIMITIVE CELL
       A          B          C        ALPHA      BETA     GAMMA        VOLUME
    7.28273    9.56635   12.91139    90.00000 117.27373  90.00000    799.523337

 NUMBER OF IRREDUCIBLE ATOMS IN THE CELL:   20

 CARTESIAN COORDINATES (ANGSTROM) - IRREDUCIBLE ATOMS AND SYMMETRY RELATED

 AT.IRR.  AT  AT.N.          X                   Y                   Z
     1     1     8    2.761302641809E+00 -7.658704657390E-01  2.428151202376E+00
     1     2     8    1.611459173897E+00  4.017305031931E+00  3.273125339916E+00
     1     3     8   -2.761302641809E+00  7.658704657390E-01 -2.428151202376E+00
     1     4     8   -1.611459173897E+00 -4.017305031931E+00 -3.273125339916E+00
     5     5     8    7.769460552070E-01  4.865096317276E+00 -2.286965899594E+00
     5     6     8    2.132767033394E+00  8.192081960600E-02 -3.475807134714E+00
     5     7     8   -7.769460552070E-01 -4.865096317276E+00  2.286965899594E+00
     5     8     8   -2.132767033394E+00 -8.192081960600E-02  3.475807134714E+00
     9     9     7    2.962287231276E+00 -4.338349440404E+00 -1.830206167972E+00
     9    10     7   -5.257414267600E-02  4.448260572660E-01 -3.932566866336E+00
     9    11     7   -2.962287231276E+00  4.338349440404E+00  1.830206167972E+00
     9    12     7    5.257414267600E-02 -4.448260572660E-01  3.932566866336E+00
    13    13     6    2.865865419194E+00 -3.456382449427E+00 -7.368221449450E-01
    13    14     6    4.384766940600E-02  1.326793048244E+00 -5.025950889363E+00
    13    15     6   -2.865865419194E+00  3.456382449427E+00  7.368221449450E-01
    13    16     6   -4.384766940600E-02 -1.326793048244E+00  5.025950889363E+00
    17    17     6    1.807054027353E+00 -3.447321941715E+00  1.659571520940E-01
    17    18     6    1.102659061248E+00  1.335853555955E+00 -5.928730186402E+00
    17    19     6   -1.807054027353E+00  3.447321941715E+00 -1.659571520940E-01
    17    20     6   -1.102659061248E+00 -1.335853555955E+00  5.928730186402E+00
    21    21     6    1.791998096559E+00 -2.545017797534E+00  1.219431659927E+00
    21    22     6    2.580763719147E+00  2.238157700136E+00  4.481844882365E+00
    21    23     6   -1.791998096559E+00  2.545017797534E+00 -1.219431659927E+00
    21    24     6   -2.580763719147E+00 -2.238157700136E+00 -4.481844882365E+00
    25    25     6    2.833602705464E+00 -1.639782851474E+00  1.403632114343E+00
    25    26     6    1.539159110242E+00  3.143392646196E+00  4.297644427949E+00
    25    27     6   -2.833602705464E+00  1.639782851474E+00 -1.403632114343E+00
    25    28     6   -1.539159110242E+00 -3.143392646196E+00 -4.297644427949E+00
    29    29     6   -3.377723115422E+00 -1.666866885131E+00  5.754358227770E-01
    29    30     6    4.680100268220E-01  3.116308612539E+00  5.187337211531E+00
    29    31     6    3.377723115422E+00  1.666866885131E+00 -5.754358227770E-01
    29    32     6   -4.680100268220E-01 -3.116308612539E+00 -5.187337211531E+00
    33    33     6   -3.368299110456E+00 -2.562138872452E+00 -4.797565952290E-01
    33    34     6   -1.004462705250E+00  2.221036625218E+00 -5.221519947063E+00
    33    35     6    3.368299110456E+00  2.562138872452E+00  4.797565952290E-01
    33    36     6    1.004462705250E+00 -2.221036625218E+00  5.221519947063E+00
    37    37     6    1.966407377653E+00  4.686877021908E+00 -2.549197972870E+00
    37    38     6    9.433057109470E-01 -9.629847576200E-02 -3.213575061438E+00
    37    39     6   -1.966407377653E+00 -4.686877021908E+00  2.549197972870E+00
    37    40     6   -9.433057109470E-01  9.629847576200E-02  3.213575061438E+00
    41    41     6    2.404231099050E+00  3.821380068352E+00 -3.698637267759E+00
    41    42     6    5.054819895510E-01 -9.617954293180E-01 -2.064135766549E+00
    41    43     6   -2.404231099050E+00 -3.821380068352E+00  3.698637267759E+00
    41    44     6   -5.054819895510E-01  9.617954293180E-01  2.064135766549E+00
    45    45     1    9.877976332510E-01 -4.141094488436E+00  7.046022707500E-02
    45    46     1    1.921915455349E+00  6.420810092340E-01 -5.833233261383E+00
    45    47     1   -9.877976332510E-01  4.141094488436E+00 -7.046022707500E-02
    45    48     1   -1.921915455349E+00 -6.420810092340E-01  5.833233261383E+00
    49    49     1    9.573984985320E-01 -2.558050799401E+00  1.909559844464E+00
    49    50     1    3.415363317174E+00  2.225124698269E+00  3.791716697827E+00
    49    51     1   -9.573984985320E-01  2.558050799401E+00 -1.909559844464E+00
    49    52     1   -3.415363317174E+00 -2.225124698269E+00 -3.791716697827E+00
    53    53     1   -2.553146614294E+00 -9.751141406900E-01  6.887040396130E-01
    53    54     1   -3.565664743070E-01  3.808061356980E+00  5.074068994695E+00
    53    55     1    2.553146614294E+00  9.751141406900E-01 -6.887040396130E-01
    53    56     1    3.565664743070E-01 -3.808061356980E+00 -5.074068994695E+00
    57    57     1   -2.525677355027E+00 -2.564214282857E+00 -1.160322834757E+00
    57    58     1   -1.847084460679E+00  2.218961214813E+00 -4.540953707535E+00
    57    59     1    2.525677355027E+00  2.564214282857E+00  1.160322834757E+00
    57    60     1    1.847084460679E+00 -2.218961214813E+00  4.540953707535E+00
    61    61     1   -3.641956095310E+00 -3.948205527120E-01  2.721744547440E+00
    61    62     1    7.322430067100E-01  4.388354944958E+00  3.041028486868E+00
    61    63     1    3.641956095310E+00  3.948205527120E-01 -2.721744547440E+00
    61    64     1   -7.322430067100E-01 -4.388354944958E+00 -3.041028486868E+00
    65    65     1   -3.380156419559E+00 -4.498168209552E+00 -2.108173343485E+00
    65    66     1   -9.926053961470E-01  2.850072881180E-01 -3.593103198806E+00
    65    67     1    3.380156419559E+00  4.498168209552E+00  2.108173343485E+00
    65    68     1    9.926053961470E-01 -2.850072881180E-01  3.593103198806E+00
    69    69     1    1.755207422875E+00  3.977350377183E+00 -4.559032110153E+00
    69    70     1    1.154505665725E+00 -8.058251204870E-01 -1.203740924155E+00
    69    71     1   -1.755207422875E+00 -3.977350377183E+00  4.559032110153E+00
    69    72     1   -1.154505665725E+00  8.058251204870E-01  1.203740924155E+00
    73    73     1    3.437756650087E+00  3.992414478833E+00 -3.994773500336E+00
    73    74     1   -5.280435614870E-01 -7.907610188370E-01 -1.767999533972E+00
    73    75     1   -3.437756650087E+00 -3.992414478833E+00  3.994773500336E+00
    73    76     1    5.280435614870E-01  7.907610188370E-01  1.767999533972E+00
    77    77     1    2.304222798647E+00  2.771140868213E+00 -3.424658979259E+00
    77    78     1    6.054902899530E-01 -2.012034629457E+00 -2.338114055049E+00
    77    79     1   -2.304222798647E+00 -2.771140868213E+00  3.424658979259E+00
    77    80     1   -6.054902899530E-01  2.012034629457E+00  2.338114055049E+00

 SPACE  GROUP  N.                     :   14
 NUMBER OF SYMMETRY OPERATORS         :    4
 *******************************************************************************
 LATTICE PARAMETERS (ANGSTROMS AND DEGREES) - BOHR = 0.5291772083 ANGSTROM
 PRIMITIVE CELL - CENTRING CODE 1/0 VOLUME=   799.523337 - DENSITY  1.255 g/cm^3
         A              B              C           ALPHA      BETA       GAMMA 
     7.28273455     9.56635100    12.91138773    90.000000 117.273735  90.000000
 *******************************************************************************
 ATOMS IN THE ASYMMETRIC UNIT   20 - ATOMS IN THE UNIT CELL:   80
     ATOM                 X/A                 Y/B                 Z/C    
 *******************************************************************************
      1 T   8 O    -4.501337295238E-01 -8.005878794454E-02  2.136094927247E-01
      2 F   8 O     4.501337295238E-01  4.199412120555E-01  2.863905072761E-01
      3 F   8 O     4.501337295238E-01  8.005878794454E-02 -2.136094927247E-01
      4 F   8 O    -4.501337295238E-01 -4.199412120555E-01 -2.863905072761E-01
      5 T   8 O    -5.209712205406E-02 -4.914365655571E-01 -1.987037903639E-01
      6 F   8 O     5.209712205364E-02  8.563434442862E-03 -3.012962096368E-01
      7 F   8 O     5.209712205406E-02  4.914365655571E-01  1.987037903639E-01
      8 F   8 O    -5.209712205364E-02 -8.563434442862E-03  3.012962096368E-01
      9 T   7 N     2.810741408862E-01 -4.535009683961E-01 -1.572958958752E-01
     10 F   7 N    -2.810741408867E-01  4.649903160387E-02 -3.427041041255E-01
     11 F   7 N    -2.810741408862E-01  4.535009683961E-01  1.572958958752E-01
     12 F   7 N     2.810741408867E-01 -4.649903160387E-02  3.427041041255E-01
     13 T   6 C     3.439093358190E-01 -3.613062547162E-01 -6.209449191915E-02
     14 F   6 C    -3.439093358196E-01  1.386937452839E-01 -4.379055080815E-01
     15 F   6 C    -3.439093358190E-01  3.613062547162E-01  6.209449191915E-02
     16 F   6 C     3.439093358196E-01 -1.386937452839E-01  4.379055080815E-01
     17 T   6 C     2.607554403086E-01 -3.603591320655E-01  1.579037521207E-02
     18 F   6 C    -2.607554403090E-01  1.396408679345E-01  4.842096247872E-01
     19 F   6 C    -2.607554403086E-01  3.603591320655E-01 -1.579037521207E-02
     20 F   6 C     2.607554403090E-01 -1.396408679345E-01 -4.842096247872E-01
     21 T   6 C     3.320324182135E-01 -2.660385134074E-01  1.075741211309E-01
     22 F   6 C    -3.320324182135E-01  2.339614865926E-01  3.924258788699E-01
     23 F   6 C    -3.320324182135E-01  2.660385134074E-01 -1.075741211309E-01
     24 F   6 C     3.320324182135E-01 -2.339614865926E-01 -3.924258788699E-01
     25 T   6 C     4.884996450340E-01 -1.714115290431E-01  1.243909069757E-01
     26 F   6 C    -4.884996450339E-01  3.285884709569E-01  3.756090930250E-01
     27 F   6 C    -4.884996450340E-01  1.714115290431E-01 -1.243909069757E-01
     28 F   6 C     4.884996450339E-01 -3.285884709569E-01 -3.756090930250E-01
     29 T   6 C    -4.257338314649E-01 -1.742427061210E-01  4.765541539985E-02
     30 F   6 C     4.257338314654E-01  3.257572938790E-01  4.523445846008E-01
     31 F   6 C     4.257338314649E-01  1.742427061210E-01 -4.765541539985E-02
     32 F   6 C    -4.257338314654E-01 -3.257572938790E-01 -4.523445846008E-01
     33 T   6 C    -4.979070919294E-01 -2.678282318619E-01 -4.428216517421E-02
     34 F   6 C     4.979070919294E-01  2.321717681381E-01 -4.557178348265E-01
     35 F   6 C     4.979070919294E-01  2.678282318619E-01  4.428216517421E-02
     36 F   6 C    -4.979070919294E-01 -2.321717681381E-01  4.557178348265E-01
     37 T   6 C     9.367510760700E-02  4.899336250772E-01 -2.206782452844E-01
     38 F   6 C    -9.367510760756E-02 -1.006637492278E-02 -2.793217547163E-01
     39 F   6 C    -9.367510760700E-02 -4.899336250772E-01  2.206782452844E-01
     40 F   6 C     9.367510760756E-02  1.006637492278E-02  2.793217547163E-01
     41 T   6 C     7.401746245822E-02  3.994605749061E-01 -3.205128357028E-01
     42 F   6 C    -7.401746245864E-02 -1.005394250939E-01 -1.794871642979E-01
     43 F   6 C    -7.401746245822E-02 -3.994605749061E-01  3.205128357028E-01
     44 F   6 C     7.401746245864E-02  1.005394250939E-01  1.794871642979E-01
     45 T   1 H     1.411273202109E-01 -4.328813034827E-01  6.866404569865E-03
     46 F   1 H    -1.411273202114E-01  6.711869651728E-02  4.931335954294E-01
     47 F   1 H    -1.411273202109E-01  4.328813034827E-01 -6.866404569865E-03
     48 F   1 H     1.411273202114E-01 -6.711869651728E-02 -4.931335954294E-01
     49 T   1 H     2.649913520573E-01 -2.674008930518E-01  1.670945455918E-01
     50 F   1 H    -2.649913520573E-01  2.325991069482E-01  3.329054544088E-01
     51 F   1 H    -2.649913520573E-01  2.674008930518E-01 -1.670945455918E-01
     52 F   1 H     2.649913520573E-01 -2.325991069482E-01 -3.329054544088E-01
     53 T   1 H    -3.041346356264E-01 -1.019316708288E-01  5.813180758929E-02
     54 F   1 H     3.041346356269E-01  3.980683291712E-01  4.418681924114E-01
     55 F   1 H     3.041346356264E-01  1.019316708288E-01 -5.813180758929E-02
     56 F   1 H    -3.041346356269E-01 -3.980683291712E-01 -4.418681924114E-01
     57 T   1 H    -4.290939420531E-01 -2.680451808747E-01 -1.029635038440E-01
     58 F   1 H     4.290939420531E-01  2.319548191253E-01 -3.970364961567E-01
     59 F   1 H     4.290939420531E-01  2.680451808747E-01  1.029635038440E-01
     60 F   1 H    -4.290939420531E-01 -2.319548191253E-01  3.970364961567E-01
     61 T   1 H    -3.127254907458E-01 -4.127180289583E-02  2.344802589578E-01
     62 F   1 H     3.127254907464E-01  4.587281971042E-01  2.655197410429E-01
     63 F   1 H     3.127254907458E-01  4.127180289583E-02 -2.344802589578E-01
     64 F   1 H    -3.127254907464E-01 -4.587281971042E-01 -2.655197410429E-01
     65 T   1 H     3.870713582878E-01 -4.702073143399E-01 -1.861834825035E-01
     66 F   1 H    -3.870713582877E-01  2.979268566006E-02 -3.138165174971E-01
     67 F   1 H    -3.870713582878E-01  4.702073143399E-01  1.861834825035E-01
     68 F   1 H     3.870713582877E-01 -2.979268566006E-02  3.138165174971E-01
     69 T   1 H    -7.539460631338E-02  4.157646294936E-01 -3.959611619957E-01
     70 F   1 H     7.539460631282E-02 -8.423537050643E-02 -1.040388380050E-01
     71 F   1 H     7.539460631338E-02 -4.157646294936E-01  3.959611619957E-01
     72 F   1 H    -7.539460631282E-02  8.423537050643E-02  1.040388380050E-01
     73 T   1 H     1.959247938612E-01  4.173393262256E-01 -3.455562789918E-01
     74 F   1 H    -1.959247938617E-01 -8.266067377438E-02 -1.544437210089E-01
     75 F   1 H    -1.959247938612E-01 -4.173393262256E-01  3.455562789918E-01
     76 F   1 H     1.959247938617E-01  8.266067377438E-02  1.544437210089E-01
     77 T   1 H     7.930298513641E-02  2.896758512794E-01 -2.967132406146E-01
     78 F   1 H    -7.930298513697E-02 -2.103241487206E-01 -2.032867593861E-01
     79 F   1 H    -7.930298513641E-02 -2.896758512794E-01  2.967132406146E-01
     80 F   1 H     7.930298513697E-02  2.103241487206E-01  2.032867593861E-01

 T = ATOM BELONGING TO THE ASYMMETRIC UNIT
 *******************************************************************************
 * GEOMETRY EDITING - INPUT COORDINATES ARE GIVEN IN ANGSTROM         
 *******************************************************************************

 GEOMETRY NOW FULLY CONSISTENT WITH THE GROUP

 FRQFRQFRQFRQFRQFRQFRQFRQFRQFRQFRQFRQFRQFRQFRQFRQFRQFRQFRQFRQFRQFRQFRQFRQFRQFRQ

                       FREQUENCY CALCULATION

 INFORMATION **** INPFREQ ****  PRINTING OF EIGENVECTORS
 INFORMATION **** INPFREQ **** NEW DEFAULT - IMPOSING ECKART CONDITIONS TO THE HESSIAN

 GCALCO - MAX INDICES DIRECT LATTICE VECTOR    20    14    11
 NO.OF VECTORS CREATED 6999 STARS 1869 RMAX   208.18718 BOHR

 GEOMETRY FOR WAVE FUNCTION - DIMENSIONALITY OF THE SYSTEM    3
 (NON PERIODIC DIRECTION: LATTICE PARAMETER FORMALLY SET TO 500)
 *******************************************************************************
 LATTICE PARAMETERS (ANGSTROMS AND DEGREES) - BOHR = 0.5291772083 ANGSTROM
 PRIMITIVE CELL - CENTRING CODE 1/0 VOLUME=   799.523337 - DENSITY  1.255 g/cm^3
         A              B              C           ALPHA      BETA       GAMMA 
     7.28273455     9.56635100    12.91138773    90.000000 117.273735  90.000000
 *******************************************************************************
 ATOMS IN THE ASYMMETRIC UNIT   20 - ATOMS IN THE UNIT CELL:   80
     ATOM                 X/A                 Y/B                 Z/C    
 *******************************************************************************
      1 T   8 O    -4.501337295238E-01 -8.005878794454E-02  2.136094927247E-01
      2 F   8 O     4.501337295245E-01  4.199412120555E-01  2.863905072762E-01
      3 F   8 O     4.501337295238E-01  8.005878794454E-02 -2.136094927247E-01
      4 F   8 O    -4.501337295231E-01 -4.199412120555E-01 -2.863905072745E-01
      5 T   8 O    -5.209712205406E-02 -4.914365655571E-01 -1.987037903639E-01
      6 F   8 O     5.209712205476E-02  8.563434442862E-03 -3.012962096352E-01
      7 F   8 O     5.209712205406E-02  4.914365655571E-01  1.987037903639E-01
      8 F   8 O    -5.209712205337E-02 -8.563434442862E-03  3.012962096370E-01
      9 T   7 N     2.810741408862E-01 -4.535009683961E-01 -1.572958958752E-01
     10 F   7 N    -2.810741408855E-01  4.649903160387E-02 -3.427041041240E-01
     11 F   7 N    -2.810741408862E-01  4.535009683961E-01  1.572958958752E-01
     12 F   7 N     2.810741408868E-01 -4.649903160387E-02  3.427041041257E-01
     13 T   6 C     3.439093358190E-01 -3.613062547162E-01 -6.209449191915E-02
     14 F   6 C    -3.439093358183E-01  1.386937452838E-01 -4.379055080800E-01
     15 F   6 C    -3.439093358190E-01  3.613062547162E-01  6.209449191915E-02
     16 F   6 C     3.439093358197E-01 -1.386937452838E-01  4.379055080817E-01
     17 T   6 C     2.607554403086E-01 -3.603591320655E-01  1.579037521207E-02
     18 F   6 C    -2.607554403079E-01  1.396408679345E-01  4.842096247888E-01
     19 F   6 C    -2.607554403086E-01  3.603591320655E-01 -1.579037521207E-02
     20 F   6 C     2.607554403093E-01 -1.396408679345E-01 -4.842096247871E-01
     21 T   6 C     3.320324182135E-01 -2.660385134074E-01  1.075741211309E-01
     22 F   6 C    -3.320324182128E-01  2.339614865926E-01  3.924258788700E-01
     23 F   6 C    -3.320324182135E-01  2.660385134074E-01 -1.075741211309E-01
     24 F   6 C     3.320324182142E-01 -2.339614865926E-01 -3.924258788683E-01
     25 T   6 C     4.884996450340E-01 -1.714115290431E-01  1.243909069757E-01
     26 F   6 C    -4.884996450333E-01  3.285884709569E-01  3.756090930251E-01
     27 F   6 C    -4.884996450340E-01  1.714115290431E-01 -1.243909069757E-01
     28 F   6 C     4.884996450347E-01 -3.285884709569E-01 -3.756090930234E-01
     29 T   6 C    -4.257338314649E-01 -1.742427061210E-01  4.765541539985E-02
     30 F   6 C     4.257338314656E-01  3.257572938790E-01  4.523445846010E-01
     31 F   6 C     4.257338314649E-01  1.742427061210E-01 -4.765541539985E-02
     32 F   6 C    -4.257338314642E-01 -3.257572938790E-01 -4.523445845993E-01
     33 T   6 C    -4.979070919294E-01 -2.678282318619E-01 -4.428216517421E-02
     34 F   6 C     4.979070919301E-01  2.321717681381E-01 -4.557178348249E-01
     35 F   6 C     4.979070919294E-01  2.678282318619E-01  4.428216517421E-02
     36 F   6 C    -4.979070919287E-01 -2.321717681381E-01  4.557178348267E-01
     37 T   6 C     9.367510760700E-02  4.899336250772E-01 -2.206782452844E-01
     38 F   6 C    -9.367510760630E-02 -1.006637492278E-02 -2.793217547147E-01
     39 F   6 C    -9.367510760700E-02 -4.899336250772E-01  2.206782452844E-01
     40 F   6 C     9.367510760770E-02  1.006637492278E-02  2.793217547165E-01
     41 T   6 C     7.401746245822E-02  3.994605749061E-01 -3.205128357028E-01
     42 F   6 C    -7.401746245753E-02 -1.005394250939E-01 -1.794871642964E-01
     43 F   6 C    -7.401746245822E-02 -3.994605749061E-01  3.205128357028E-01
     44 F   6 C     7.401746245892E-02  1.005394250939E-01  1.794871642981E-01
     45 T   1 H     1.411273202109E-01 -4.328813034827E-01  6.866404569865E-03
     46 F   1 H    -1.411273202102E-01  6.711869651728E-02  4.931335954310E-01
     47 F   1 H    -1.411273202109E-01  4.328813034827E-01 -6.866404569865E-03
     48 F   1 H     1.411273202116E-01 -6.711869651728E-02 -4.931335954293E-01
     49 T   1 H     2.649913520573E-01 -2.674008930518E-01  1.670945455918E-01
     50 F   1 H    -2.649913520566E-01  2.325991069482E-01  3.329054544091E-01
     51 F   1 H    -2.649913520573E-01  2.674008930518E-01 -1.670945455918E-01
     52 F   1 H     2.649913520580E-01 -2.325991069482E-01 -3.329054544073E-01
     53 T   1 H    -3.041346356264E-01 -1.019316708288E-01  5.813180758929E-02
     54 F   1 H     3.041346356271E-01  3.980683291712E-01  4.418681924116E-01
     55 F   1 H     3.041346356264E-01  1.019316708288E-01 -5.813180758929E-02
     56 F   1 H    -3.041346356257E-01 -3.980683291712E-01 -4.418681924098E-01
     57 T   1 H    -4.290939420531E-01 -2.680451808747E-01 -1.029635038440E-01
     58 F   1 H     4.290939420538E-01  2.319548191253E-01 -3.970364961551E-01
     59 F   1 H     4.290939420531E-01  2.680451808747E-01  1.029635038440E-01
     60 F   1 H    -4.290939420524E-01 -2.319548191253E-01  3.970364961569E-01
     61 T   1 H    -3.127254907458E-01 -4.127180289583E-02  2.344802589578E-01
     62 F   1 H     3.127254907465E-01  4.587281971042E-01  2.655197410431E-01
     63 F   1 H     3.127254907458E-01  4.127180289583E-02 -2.344802589578E-01
     64 F   1 H    -3.127254907451E-01 -4.587281971042E-01 -2.655197410414E-01
     65 T   1 H     3.870713582878E-01 -4.702073143399E-01 -1.861834825035E-01
     66 F   1 H    -3.870713582871E-01  2.979268566006E-02 -3.138165174956E-01
     67 F   1 H    -3.870713582878E-01  4.702073143399E-01  1.861834825035E-01
     68 F   1 H     3.870713582885E-01 -2.979268566006E-02  3.138165174974E-01
     69 T   1 H    -7.539460631338E-02  4.157646294936E-01 -3.959611619957E-01
     70 F   1 H     7.539460631407E-02 -8.423537050643E-02 -1.040388380034E-01
     71 F   1 H     7.539460631338E-02 -4.157646294936E-01  3.959611619957E-01
     72 F   1 H    -7.539460631268E-02  8.423537050643E-02  1.040388380051E-01
     73 T   1 H     1.959247938612E-01  4.173393262256E-01 -3.455562789918E-01
     74 F   1 H    -1.959247938605E-01 -8.266067377438E-02 -1.544437210073E-01
     75 F   1 H    -1.959247938612E-01 -4.173393262256E-01  3.455562789918E-01
     76 F   1 H     1.959247938619E-01  8.266067377438E-02  1.544437210090E-01
     77 T   1 H     7.930298513641E-02  2.896758512794E-01 -2.967132406146E-01
     78 F   1 H    -7.930298513572E-02 -2.103241487206E-01 -2.032867593846E-01
     79 F   1 H    -7.930298513641E-02 -2.896758512794E-01  2.967132406146E-01
     80 F   1 H     7.930298513711E-02  2.103241487206E-01  2.032867593863E-01

 T = ATOM BELONGING TO THE ASYMMETRIC UNIT

 ****    4 SYMMOPS - TRANSLATORS IN FRACTIONAL UNITS
 **** MATRICES AND TRANSLATORS IN THE CRYSTALLOGRAPHIC REFERENCE FRAME
   V INV                    ROTATION MATRICES                   TRANSLATORS
   1   1  1.00  0.00  0.00  0.00  1.00  0.00  0.00  0.00  1.00  0.00  0.00  0.00
   2   2 -1.00  0.00 -0.00  0.00  1.00  0.00 -0.00  0.00 -1.00  0.00  0.50  0.50
   3   3 -1.00 -0.00 -0.00  0.00 -1.00 -0.00 -0.00 -0.00 -1.00  0.00  0.00  0.00
   4   4  1.00 -0.00  0.00 -0.00 -1.00 -0.00  0.00 -0.00  1.00  0.00  0.50  0.50

 DIRECT LATTICE VECTORS CARTESIAN COMPONENTS (ANGSTROM)
          X                    Y                    Z
   0.728247490431E+01   0.448709027449E-15  -0.614964920163E-01
  -0.468978336557E-17   0.956635099534E+01  -0.489884556243E-17
  -0.581942617720E+01   0.796961930801E-15   0.115255460686E+02


 CARTESIAN COORDINATES - PRIMITIVE CELL
 *******************************************************************************
 *      ATOM          X(ANGSTROM)         Y(ANGSTROM)         Z(ANGSTROM)
 *******************************************************************************
    1     8 O     2.761302641809E+00 -7.658704657390E-01  2.428151202376E+00
    2     8 O     1.611459173901E+00  4.017305031931E+00  3.273125339918E+00
    3     8 O    -2.761302641809E+00  7.658704657390E-01 -2.428151202376E+00
    4     8 O    -1.611459173901E+00 -4.017305031931E+00 -3.273125339898E+00
    5     8 O     7.769460552070E-01  4.865096317276E+00 -2.286965899594E+00
    6     8 O     2.132767033393E+00  8.192081960600E-02 -3.475807134696E+00
    7     8 O    -7.769460552070E-01 -4.865096317276E+00  2.286965899594E+00
    8     8 O    -2.132767033393E+00 -8.192081960600E-02  3.475807134716E+00
    9     7 N     2.962287231276E+00 -4.338349440404E+00 -1.830206167972E+00
   10     7 N    -5.257414267600E-02  4.448260572660E-01 -3.932566866318E+00
   11     7 N    -2.962287231276E+00  4.338349440404E+00  1.830206167972E+00
   12     7 N     5.257414267600E-02 -4.448260572660E-01  3.932566866338E+00
   13     6 C     2.865865419194E+00 -3.456382449427E+00 -7.368221449450E-01
   14     6 C     4.384766940600E-02  1.326793048243E+00 -5.025950889345E+00
   15     6 C    -2.865865419194E+00  3.456382449427E+00  7.368221449450E-01
   16     6 C    -4.384766940600E-02 -1.326793048243E+00  5.025950889365E+00
   17     6 C     1.807054027353E+00 -3.447321941715E+00  1.659571520940E-01
   18     6 C     1.102659061247E+00  1.335853555955E+00 -5.928730186384E+00
   19     6 C    -1.807054027353E+00  3.447321941715E+00 -1.659571520940E-01
   20     6 C    -1.102659061247E+00 -1.335853555955E+00  5.928730186404E+00
   21     6 C     1.791998096559E+00 -2.545017797534E+00  1.219431659927E+00
   22     6 C     2.580763719151E+00  2.238157700136E+00  4.481844882367E+00
   23     6 C    -1.791998096559E+00  2.545017797534E+00 -1.219431659927E+00
   24     6 C    -2.580763719151E+00 -2.238157700136E+00 -4.481844882347E+00
   25     6 C     2.833602705464E+00 -1.639782851474E+00  1.403632114343E+00
   26     6 C     1.539159110246E+00  3.143392646196E+00  4.297644427951E+00
   27     6 C    -2.833602705464E+00  1.639782851474E+00 -1.403632114343E+00
   28     6 C    -1.539159110246E+00 -3.143392646196E+00 -4.297644427931E+00
   29     6 C    -3.377723115422E+00 -1.666866885131E+00  5.754358227770E-01
   30     6 C     4.680100268220E-01  3.116308612539E+00  5.187337211533E+00
   31     6 C     3.377723115422E+00  1.666866885131E+00 -5.754358227770E-01
   32     6 C    -4.680100268220E-01 -3.116308612539E+00 -5.187337211513E+00
   33     6 C    -3.368299110456E+00 -2.562138872452E+00 -4.797565952290E-01
   34     6 C    -1.004462705254E+00  2.221036625218E+00 -5.221519947045E+00
   35     6 C     3.368299110456E+00  2.562138872452E+00  4.797565952290E-01
   36     6 C     1.004462705254E+00 -2.221036625218E+00  5.221519947065E+00
   37     6 C     1.966407377653E+00  4.686877021908E+00 -2.549197972870E+00
   38     6 C     9.433057109470E-01 -9.629847576200E-02 -3.213575061420E+00
   39     6 C    -1.966407377653E+00 -4.686877021908E+00  2.549197972870E+00
   40     6 C    -9.433057109470E-01  9.629847576200E-02  3.213575061440E+00
   41     6 C     2.404231099050E+00  3.821380068352E+00 -3.698637267759E+00
   42     6 C     5.054819895500E-01 -9.617954293180E-01 -2.064135766531E+00
   43     6 C    -2.404231099050E+00 -3.821380068352E+00  3.698637267759E+00
   44     6 C    -5.054819895500E-01  9.617954293180E-01  2.064135766551E+00
   45     1 H     9.877976332510E-01 -4.141094488436E+00  7.046022707500E-02
   46     1 H     1.921915455349E+00  6.420810092340E-01 -5.833233261365E+00
   47     1 H    -9.877976332510E-01  4.141094488436E+00 -7.046022707500E-02
   48     1 H    -1.921915455349E+00 -6.420810092340E-01  5.833233261385E+00
   49     1 H     9.573984985320E-01 -2.558050799401E+00  1.909559844464E+00
   50     1 H     3.415363317178E+00  2.225124698269E+00  3.791716697830E+00
   51     1 H    -9.573984985320E-01  2.558050799401E+00 -1.909559844464E+00
   52     1 H    -3.415363317178E+00 -2.225124698269E+00 -3.791716697810E+00
   53     1 H    -2.553146614294E+00 -9.751141406900E-01  6.887040396130E-01
   54     1 H    -3.565664743060E-01  3.808061356980E+00  5.074068994697E+00
   55     1 H     2.553146614294E+00  9.751141406900E-01 -6.887040396130E-01
   56     1 H     3.565664743060E-01 -3.808061356980E+00 -5.074068994677E+00
   57     1 H    -2.525677355027E+00 -2.564214282857E+00 -1.160322834757E+00
   58     1 H    -1.847084460683E+00  2.218961214813E+00 -4.540953707517E+00
   59     1 H     2.525677355027E+00  2.564214282857E+00  1.160322834757E+00
   60     1 H     1.847084460683E+00 -2.218961214813E+00  4.540953707537E+00
   61     1 H    -3.641956095310E+00 -3.948205527120E-01  2.721744547440E+00
   62     1 H     7.322430067100E-01  4.388354944958E+00  3.041028486870E+00
   63     1 H     3.641956095310E+00  3.948205527120E-01 -2.721744547440E+00
   64     1 H    -7.322430067100E-01 -4.388354944958E+00 -3.041028486850E+00
   65     1 H    -3.380156419559E+00 -4.498168209552E+00 -2.108173343485E+00
   66     1 H    -9.926053961510E-01  2.850072881180E-01 -3.593103198789E+00
   67     1 H     3.380156419559E+00  4.498168209552E+00  2.108173343485E+00
   68     1 H     9.926053961510E-01 -2.850072881180E-01  3.593103198809E+00
   69     1 H     1.755207422875E+00  3.977350377183E+00 -4.559032110153E+00
   70     1 H     1.154505665725E+00 -8.058251204870E-01 -1.203740924137E+00
   71     1 H    -1.755207422875E+00 -3.977350377183E+00  4.559032110153E+00
   72     1 H    -1.154505665725E+00  8.058251204870E-01  1.203740924157E+00
   73     1 H     3.437756650087E+00  3.992414478833E+00 -3.994773500336E+00
   74     1 H    -5.280435614870E-01 -7.907610188370E-01 -1.767999533954E+00
   75     1 H    -3.437756650087E+00 -3.992414478833E+00  3.994773500336E+00
   76     1 H     5.280435614870E-01  7.907610188370E-01  1.767999533974E+00
   77     1 H     2.304222798647E+00  2.771140868213E+00 -3.424658979259E+00
   78     1 H     6.054902899530E-01 -2.012034629457E+00 -2.338114055031E+00
   79     1 H    -2.304222798647E+00 -2.771140868213E+00  3.424658979259E+00
   80     1 H    -6.054902899530E-01  2.012034629457E+00  2.338114055051E+00

 *******************************************************************************
 STARTING BASIS SET HANDLING 
 *******************************************************************************

 Loading internal basis set: DEF2-MSVP           

 Please cite in your publication:
 Fully Optimized Contracted Gaussian Basis Sets for Atoms Li to Kr. A. Schäfer, H. Horn and R. Ahlrichs; J. Chem. Phys. 97, 2571 (1992).                                                                                                                         
 S. Grimme, J. G. Brandenburg, C. Bannwarth, and A. Hansen, J. Chem. Phys., 143, 054107 (2015).                                                                                                                                                                  

 *******************************************************************************
 LOCAL ATOMIC FUNCTIONS BASIS SET
 *******************************************************************************
   ATOM   X(AU)   Y(AU)   Z(AU)  N. TYPE  EXPONENT  S COEF   P COEF   D/F/G COEF
 *******************************************************************************
   1 O    5.218  -1.447   4.589
                                  1 S  
                                         6.773E+03 1.727E-03 0.000E+00 0.000E+00
                                         1.017E+03 1.325E-02 0.000E+00 0.000E+00
                                         2.313E+02 6.603E-02 0.000E+00 0.000E+00
                                         6.501E+01 2.353E-01 0.000E+00 0.000E+00
                                         2.050E+01 5.498E-01 0.000E+00 0.000E+00
                                  2 S  
                                         6.716E+00 1.000E+00 0.000E+00 0.000E+00
                                  3 S  
                                         1.147E+00 1.000E+00 0.000E+00 0.000E+00
                                  4 S  
                                         3.342E-01 1.000E+00 0.000E+00 0.000E+00
                           5-     7 P  
                                         1.769E+01 0.000E+00 4.359E-02 0.000E+00
                                         3.854E+00 0.000E+00 2.318E-01 0.000E+00
                                         1.047E+00 0.000E+00 5.146E-01 0.000E+00
                           8-    10 P  
                                         2.759E-01 0.000E+00 1.000E+00 0.000E+00
                          11-    15 D  
                                         8.000E-01 0.000E+00 0.000E+00 1.000E+00
   2 O    3.045   7.592   6.185
   3 O   -5.218   1.447  -4.589
   4 O   -3.045  -7.592  -6.185
   5 O    1.468   9.194  -4.322
   6 O    4.030   0.155  -6.568
   7 O   -1.468  -9.194   4.322
   8 O   -4.030  -0.155   6.568
   9 N    5.598  -8.198  -3.459
                                121 S  
                                         5.072E+03 1.707E-03 0.000E+00 0.000E+00
                                         7.614E+02 1.309E-02 0.000E+00 0.000E+00
                                         1.732E+02 6.510E-02 0.000E+00 0.000E+00
                                         4.867E+01 2.305E-01 0.000E+00 0.000E+00
                                         1.533E+01 5.330E-01 0.000E+00 0.000E+00
                                122 S  
                                         5.019E+00 1.000E+00 0.000E+00 0.000E+00
                                123 S  
                                         8.355E-01 1.000E+00 0.000E+00 0.000E+00
                                124 S  
                                         2.463E-01 1.000E+00 0.000E+00 0.000E+00
                         125-   127 P  
                                         1.355E+01 0.000E+00 4.063E-02 0.000E+00
                                         2.918E+00 0.000E+00 2.209E-01 0.000E+00
                                         7.983E-01 0.000E+00 5.186E-01 0.000E+00
                         128-   130 P  
                                         2.190E-01 0.000E+00 1.000E+00 0.000E+00
                         131-   135 D  
                                         8.000E-01 0.000E+00 0.000E+00 1.000E+00
  10 N   -0.099   0.841  -7.431
  11 N   -5.598   8.198   3.459
  12 N    0.099  -0.841   7.431
  13 C    5.416  -6.532  -1.392
                                181 S  
                                         3.624E+03 1.634E-03 0.000E+00 0.000E+00
                                         5.440E+02 1.252E-02 0.000E+00 0.000E+00
                                         1.237E+02 6.211E-02 0.000E+00 0.000E+00
                                         3.476E+01 2.182E-01 0.000E+00 0.000E+00
                                         1.093E+01 4.980E-01 0.000E+00 0.000E+00
                                182 S  
                                         3.574E+00 1.000E+00 0.000E+00 0.000E+00
                                183 S  
                                         5.748E-01 1.000E+00 0.000E+00 0.000E+00
                                184 S  
                                         1.730E-01 1.000E+00 0.000E+00 0.000E+00
                         185-   187 P  
                                         9.443E+00 0.000E+00 3.790E-02 0.000E+00
                                         2.002E+00 0.000E+00 2.082E-01 0.000E+00
                                         5.463E-01 0.000E+00 5.047E-01 0.000E+00
                         188-   190 P  
                                         1.520E-01 0.000E+00 1.000E+00 0.000E+00
                         191-   195 D  
                                         8.000E-01 0.000E+00 0.000E+00 1.000E+00
  14 C    0.083   2.507  -9.498
  15 C   -5.416   6.532   1.392
  16 C   -0.083  -2.507   9.498
  17 C    3.415  -6.514   0.314
  18 C    2.084   2.524 -11.204
  19 C   -3.415   6.514  -0.314
  20 C   -2.084  -2.524  11.204
  21 C    3.386  -4.809   2.304
  22 C    4.877   4.230   8.469
  23 C   -3.386   4.809  -2.304
  24 C   -4.877  -4.230  -8.469
  25 C    5.355  -3.099   2.652
  26 C    2.909   5.940   8.121
  27 C   -5.355   3.099  -2.652
  28 C   -2.909  -5.940  -8.121
  29 C   -6.383  -3.150   1.087
  30 C    0.884   5.889   9.803
  31 C    6.383   3.150  -1.087
  32 C   -0.884  -5.889  -9.803
  33 C   -6.365  -4.842  -0.907
  34 C   -1.898   4.197  -9.867
  35 C    6.365   4.842   0.907
  36 C    1.898  -4.197   9.867
  37 C    3.716   8.857  -4.817
  38 C    1.783  -0.182  -6.073
  39 C   -3.716  -8.857   4.817
  40 C   -1.783   0.182   6.073
  41 C    4.543   7.221  -6.989
  42 C    0.955  -1.818  -3.901
  43 C   -4.543  -7.221   6.989
  44 C   -0.955   1.818   3.901
  45 H    1.867  -7.826   0.133
                                661 S  
                                         1.874E+01 1.968E-02 0.000E+00 0.000E+00
                                         2.826E+00 1.380E-01 0.000E+00 0.000E+00
                                         6.401E-01 4.783E-01 0.000E+00 0.000E+00
                                662 S  
                                         1.756E-01 1.000E+00 0.000E+00 0.000E+00
  46 H    3.632   1.213 -11.023
  47 H   -1.867   7.826  -0.133
  48 H   -3.632  -1.213  11.023
  49 H    1.809  -4.834   3.609
  50 H    6.454   4.205   7.165
  51 H   -1.809   4.834  -3.609
  52 H   -6.454  -4.205  -7.165
  53 H   -4.825  -1.843   1.301
  54 H   -0.674   7.196   9.589
  55 H    4.825   1.843  -1.301
  56 H    0.674  -7.196  -9.589
  57 H   -4.773  -4.846  -2.193
  58 H   -3.490   4.193  -8.581
  59 H    4.773   4.846   2.193
  60 H    3.490  -4.193   8.581
  61 H   -6.882  -0.746   5.143
  62 H    1.384   8.293   5.747
  63 H    6.882   0.746  -5.143
  64 H   -1.384  -8.293  -5.747
  65 H   -6.388  -8.500  -3.984
  66 H   -1.876   0.539  -6.790
  67 H    6.388   8.500   3.984
  68 H    1.876  -0.539   6.790
  69 H    3.317   7.516  -8.615
  70 H    2.182  -1.523  -2.275
  71 H   -3.317  -7.516   8.615
  72 H   -2.182   1.523   2.275
  73 H    6.496   7.545  -7.549
  74 H   -0.998  -1.494  -3.341
  75 H   -6.496  -7.545   7.549
  76 H    0.998   1.494   3.341
  77 H    4.354   5.237  -6.472
  78 H    1.144  -3.802  -4.418
  79 H   -4.354  -5.237   6.472
  80 H   -1.144   3.802   4.418

 *******************************************************************************
 FINISHED BASIS SET HANDLING 
 *******************************************************************************

 INFORMATION **** SET_MPP **** PCRYSTAL CALCULATION
 INFORMATION **** READM2 **** NEW DEFAULT: FOCK/KS MATRIX MIXING SET TO 30 %
 INFORMATION **** READM2 **** NEW DEFAULT: FULL DIRECT SCF MODE
 INFORMATION **** READM2 **** NEW DEFAULT: COULOMB BIPOLAR BUFFER SET TO 32 Mb
 INFORMATION **** READM2 **** NEW DEFAULT: EXCHANGE BIPOLAR BUFFER SET TO 32 Mb

 *******************************************************************************
 NEW DEFAULT: DFT INTEGRATION GRID INCREASED TO XLGRID
 NEW DEFAULT: DIIS ACCELERATOR ACTIVE
 USE KEYWORD NODIIS TO TURN IT OFF
 *******************************************************************************

 INFORMATION **** RDDFTP **** PBEh-3c calculation
 INFORMATION **** RDDFTP **** PBEh hybrid functional combined with D3 and gCP

PLEASE CITE:
(1) PBEh-3c Reference
 S. Grimme, J. G. Brandenburg, C. Bannwarth, and A. Hansen, 
 J. Chem. Phys. 143, 054107 (2015)
(2) DFT-D3 Reference
 S. Grimme, J. Antony, S. Ehrlich, and H. Krieg, J. Chem. Phys. 132, 154104 (2010)
(3) gCP Reference
 H. Kruse and S. Grimme J. Chem. Phys, 136, 154101 (2012)
 J. G. Brandenburg, M. Alessio, B. Civalleri, M. F. Peintinger
 T. Bredow, and S. Grimme, J. Phys. Chem. A, 117, 9282 (2013) 

 WARNING **** RDDFTP **** PBEh-3c has to be combined with def2-mSVP basis set
 WARNING **** RDDFTP **** Note: Harmonic frequencies are scaled by 0.95
 WARNING **** RDDFTP **** as recommended in original publication
 INFORMATION **** TOLDEE **** SCF TOL ON TOTAL ENERGY SET TO           9
 INFORMATION **** TOLINTEG **** COULOMB AND EXCHANGE SERIES TOLERANCES MODIFIED
 INFORMATION **** MAXCYCLE **** MAX NUMBER OF SCF CYCLES SET TO          30
 WARNING **** READM2 **** PROBABLE LOSS IN FREQCALC ACCURACY; SCF TOL LT          10
 *******************************************************************************
 N. OF ATOMS PER CELL        80  COULOMB OVERLAP TOL         (T1) 10**   -8
 NUMBER OF SHELLS           380  COULOMB PENETRATION TOL     (T2) 10**   -8
 NUMBER OF AO               732  EXCHANGE OVERLAP TOL        (T3) 10**   -8
 N. OF ELECTRONS PER CELL   320  EXCHANGE PSEUDO OVP (F(G))  (T4) 10**   -8
 CORE ELECTRONS PER CELL     88  EXCHANGE PSEUDO OVP (P(G))  (T5) 10**  -24
 N. OF SYMMETRY OPERATORS     4  POLE ORDER IN MONO ZONE                  4
 *******************************************************************************
 TYPE OF CALCULATION :  RESTRICTED CLOSED SHELL
 KOHN-SHAM HAMILTONIAN

 (EXCHANGE)[CORRELATION] FUNCTIONAL:(PBEh-3c)[PBEh-3c]


 HYBRID EXCHANGE - PERCENTAGE OF FOCK EXCHANGE    42.0000

 CAPPA:IS1  4;IS2  4;IS3  2; K PTS MONK NET  18; SYMMOPS:K SPACE   4;G SPACE   4

 *******************************************************************************
 MAX NUMBER OF SCF CYCLES      30  CONVERGENCE ON DELTAP        10**-19
 WEIGHT OF F(I) IN F(I+1)      50% CONVERGENCE ON ENERGY        10**- 9
 SHRINK. FACT.(MONKH.)    4  4  2  NUMBER OF K POINTS IN THE IBZ     18
 SHRINKING FACTOR(GILAT NET)    4  NUMBER OF K POINTS(GILAT NET)     18
 *******************************************************************************
 *** K POINTS COORDINATES (OBLIQUE COORDINATES IN UNITS OF IS =  4)
   1-R(  0  0  0)   2-C(  1  0  0)   3-R(  2  0  0)   4-C(  0  1  0)
   5-C(  1  1  0)   6-C(  2  1  0)   7-R(  0  2  0)   8-C(  1  2  0)
   9-R(  2  2  0)  10-R(  0  0  1)  11-C(  1  0  1)  12-R(  2  0  1)
  13-C(  0  1  1)  14-C(  1  1  1)  15-C(  2  1  1)  16-R(  0  2  1)
  17-C(  1  2  1)  18-R(  2  2  1)

 DIRECT LATTICE VECTORS COMPON. (A.U.)     RECIP. LATTICE VECTORS COMPON. (A.U.) 
        X            Y            Z              X            Y            Z
   13.7618831    0.0000000   -0.1162115      0.4585194    0.0000000    0.2315135
   -0.0000000   18.0777835   -0.0000000     -0.0000000    0.3475639   -0.0000000
  -10.9971217    0.0000000   21.7801256      0.0024465    0.0000000    0.2897178

 DISK SPACE FOR EIGENVECTORS (FTN 10)    15003072 REALS

 SYMMETRY ADAPTION OF THE BLOCH FUNCTIONS ENABLED
 TTTTTTTTTTTTTTTTTTTTTTTTTTTTTT gordsh1     TELAPSE        4.09 TCPU        2.43

 MATRIX SIZE: P(G) 2137668, F(G)  199938, P(G) IRR  271139, F(G) IRR   50755
 MAX G-VECTOR INDEX FOR 1- AND 2-ELECTRON INTEGRALS  99

 TTTTTTTTTTTTTTTTTTTTTTTTTTTTTT INPUT       TELAPSE        4.20 TCPU        2.53

 NEIGHBORS OF THE NON-EQUIVALENT ATOMS

 N = NUMBER OF NEIGHBORS AT DISTANCE R
    ATOM  N     R/ANG      R/AU   NEIGHBORS (ATOM LABELS AND CELL INDICES)
   1 O    1     0.9821     1.8559   61 H    1 0 0
   1 O    1     1.3486     2.5484   25 C    0 0 0
   1 O    1     2.1718     4.1041   68 H    0 0 0
   1 O    1     2.3592     4.4583   21 C    0 0 0
   1 O    1     2.4049     4.5446   29 C    1 0 0
   1 O    1     2.5952     4.9042   49 H    0 0 0

   5 O    1     1.2310     2.3262   37 C    0 0 0
   5 O    1     1.7159     3.2425   64 H    0 1 0
   5 O    1     2.2619     4.2743    9 N    0 1 0
   5 O    1     2.3938     4.5236   41 C    0 0 0
   5 O    1     2.4322     4.5962   45 H    0 1 0
   5 O    1     2.6282     4.9666   69 H    0 0 0

   9 N    1     1.0121     1.9127   65 H    1 0 0
   9 N    1     1.3422     2.5364   37 C    0-1 0
   9 N    1     1.4081     2.6609   13 C    0 0 0
   9 N    1     2.2619     4.2743    5 O    0-1 0
   9 N    1     2.3922     4.5205   33 C    1 0 0
   9 N    1     2.4044     4.5436   41 C    0-1 0

  13 C    1     1.3915     2.6295   17 C    0 0 0
  13 C    1     1.3917     2.6300   33 C    1 0 0
  13 C    1     1.4081     2.6609    9 N    0 0 0
  13 C    1     2.0525     3.8786   65 H    1 0 0
  13 C    1     2.1463     4.0560   57 H    1 0 0
  13 C    1     2.1558     4.0740   45 H    0 0 0

  17 C    1     1.0778     2.0367   45 H    0 0 0
  17 C    1     1.3872     2.6213   21 C    0 0 0
  17 C    1     1.3915     2.6295   13 C    0 0 0
  17 C    1     2.1337     4.0322   49 H    0 0 0
  17 C    1     2.3924     4.5210   33 C    1 0 0
  17 C    1     2.4193     4.5717   25 C    0 0 0

  21 C    1     1.0831     2.0467   49 H    0 0 0
  21 C    1     1.3872     2.6213   17 C    0 0 0
  21 C    1     1.3922     2.6309   25 C    0 0 0
  21 C    1     2.1247     4.0151   45 H    0 0 0
  21 C    1     2.3592     4.4583    1 O    0 0 0
  21 C    1     2.3943     4.5245   29 C    1 0 0

  25 C    1     1.3486     2.5484    1 O    0 0 0
  25 C    1     1.3922     2.6309   21 C    0 0 0
  25 C    1     1.3927     2.6318   29 C    1 0 0
  25 C    1     1.9443     3.6741   61 H    1 0 0
  25 C    1     2.1493     4.0615   49 H    0 0 0
  25 C    1     2.1537     4.0699   53 H    1 0 0

  29 C    1     1.0823     2.0452   53 H    0 0 0
  29 C    1     1.3838     2.6151   33 C    0 0 0
  29 C    1     1.3927     2.6318   25 C   -1 0 0
  29 C    1     2.1317     4.0283   57 H    0 0 0
  29 C    1     2.3943     4.5245   21 C   -1 0 0
  29 C    1     2.4049     4.5446    1 O   -1 0 0

  33 C    1     1.0831     2.0468   57 H    0 0 0
  33 C    1     1.3838     2.6151   29 C    0 0 0
  33 C    1     1.3917     2.6300   13 C   -1 0 0
  33 C    1     2.1327     4.0302   53 H    0 0 0
  33 C    1     2.3922     4.5205    9 N   -1 0 0
  33 C    1     2.3924     4.5210   17 C   -1 0 0

  37 C    1     1.2310     2.3262    5 O    0 0 0
  37 C    1     1.3422     2.5364    9 N    0 1 0
  37 C    1     1.5040     2.8421   41 C    0 0 0
  37 C    1     2.0093     3.7970   65 H    1 1 0
  37 C    1     2.1332     4.0312   77 H    0 0 0
  37 C    1     2.1418     4.0475   69 H    0 0 0

  41 C    1     1.0886     2.0572   73 H    0 0 0
  41 C    1     1.0890     2.0578   69 H    0 0 0
  41 C    1     1.0900     2.0598   77 H    0 0 0
  41 C    1     1.5040     2.8421   37 C    0 0 0
  41 C    1     2.3938     4.5236    5 O    0 0 0
  41 C    1     2.4044     4.5436    9 N    0 1 0

  45 H    1     1.0778     2.0367   17 C    0 0 0
  45 H    1     2.1247     4.0151   21 C    0 0 0
  45 H    1     2.1558     4.0740   13 C    0 0 0
  45 H    1     2.3605     4.4607   47 H    0-1 0
  45 H    1     2.4268     4.5859   49 H    0 0 0
  45 H    1     2.4322     4.5962    5 O    0-1 0

  49 H    1     1.0831     2.0467   21 C    0 0 0
  49 H    1     2.1337     4.0322   17 C    0 0 0
  49 H    1     2.1493     4.0615   25 C    0 0 0
  49 H    1     2.4268     4.5859   45 H    0 0 0
  49 H    1     2.5952     4.9042    1 O    0 0 0
  49 H    1     2.7983     5.2881   60 H    0 0 0

  53 H    1     1.0823     2.0452   29 C    0 0 0
  53 H    1     2.1327     4.0302   33 C    0 0 0
  53 H    1     2.1537     4.0699   25 C   -1 0 0
  53 H    1     2.3223     4.3886   72 H    0 0 0
  53 H    1     2.3781     4.4940   61 H    0 0 0
  53 H    1     2.4382     4.6076   57 H    0 0 0

  57 H    1     1.0831     2.0468   33 C    0 0 0
  57 H    1     2.1317     4.0283   29 C    0 0 0
  57 H    1     2.1463     4.0560   13 C   -1 0 0
  57 H    1     2.3171     4.3786   65 H    0 0 0
  57 H    1     2.4382     4.6076   53 H    0 0 0
  57 H    1     2.5958     4.9053    9 N   -1 0 0

  61 H    1     0.9821     1.8559    1 O   -1 0 0
  61 H    1     1.7159     3.2425    8 O    0 0 0
  61 H    1     1.9443     3.6741   25 C   -1 0 0
  61 H    1     2.3781     4.4940   53 H    0 0 0
  61 H    1     2.5089     4.7411   29 C    0 0 0
  61 H    1     2.7867     5.2661   40 C    0 0 0

  65 H    1     1.0121     1.9127    9 N   -1 0 0
  65 H    1     2.0093     3.7970   37 C   -1-1 0
  65 H    1     2.0525     3.8786   13 C   -1 0 0
  65 H    1     2.1689     4.0986   73 H   -1-1 0
  65 H    1     2.1718     4.1041    4 O    0 0 0
  65 H    1     2.3171     4.3786   57 H    0 0 0

  69 H    1     1.0890     2.0578   41 C    0 0 0
  69 H    1     1.7445     3.2966   77 H    0 0 0
  69 H    1     1.7747     3.3537   73 H    0 0 0
  69 H    1     2.1418     4.0475   37 C    0 0 0
  69 H    1     2.3223     4.3886   56 H    0 1 0
  69 H    1     2.6282     4.9666    5 O    0 0 0

  73 H    1     1.0886     2.0572   41 C    0 0 0
  73 H    1     1.7611     3.3280   77 H    0 0 0
  73 H    1     1.7747     3.3537   69 H    0 0 0
  73 H    1     2.1689     4.0986   65 H    1 1 0
  73 H    1     2.1764     4.1129   37 C    0 0 0
  73 H    1     2.5373     4.7949    9 N    0 1 0

  77 H    1     1.0900     2.0598   41 C    0 0 0
  77 H    1     1.7445     3.2966   69 H    0 0 0
  77 H    1     1.7611     3.3280   73 H    0 0 0
  77 H    1     2.1332     4.0312   37 C    0 0 0
  77 H    1     2.6952     5.0931    6 O    0 0 0
  77 H    1     2.8161     5.3217   63 H    0 0 0


 SYMMETRY ALLOWED INTERNAL DEGREE(S) OF FREEDOM:  60
 TTTTTTTTTTTTTTTTTTTTTTTTTTTTTT SYMM        TELAPSE        4.23 TCPU        2.57
 TTTTTTTTTTTTTTTTTTTTTTTTTTTTTT INT_SCREEN  TELAPSE        4.37 TCPU        2.70

 *******************************************************************************
 *                                                                             *
 *                                                                             *
 *         FFFFF  RRRR   EEEE   QQQ   U   U  EEEE  N   N   CCC  Y   Y          *
 *         F      R   R  E     Q   Q  U   U  E     NN  N  C      Y Y           *
 *         FFF    RRRR   EEEE  Q   Q  U   U  EEEE  N N N  C       Y            *
 *         F      R   R  E     Q  QQ  U   U  E     N  NN  C       Y            *
 *         F      R   R  EEEE   QQ Q   UUU   EEEE  N   N   CCC    Y            *
 *                                                                             *
 *                                                                             *
 * CALCULATION OF PHONON FREQUENCIES AT THE GAMMA POINT.                       *
 *                                                                             *
 * SYMMETRY IS EXPLOITED TO BUILD THE TOTAL HESSIAN MATRIX.                    *
 * (F. PASCALE PHD THESIS TURIN-PARIS 2002)                                    *
 *                                                                             *
 *******************************************************************************


 * INTENSITIES COMPUTED VIA THE BERRY PHASE APPROACH                           *
 *                                                                             *
 * REFERENCES TO BE QUOTED WHEN USING THIS MODULE:                             *
 *                                                                             *
 * F. Pascale, C.M. Zicovich-Wilson, F. Lopez, B. Civalleri                    *
 * R. Orlando, R. Dovesi                                                       *
 * The calculation of the vibration frequencies of crystalline                 *
 * compounds and its implementation in the CRYSTAL code                        *
 * J. Comput. Chem. 25 (2004) 888-897                                          *
 *                                                                             *
 * C.M. Zicovich-Wilson, F. Pascale, C. Roetti, V.R. Saunders,                 *
 * R. Orlando, R. Dovesi                                                       *
 * The calculation of the vibration frequencies of alpha-quartz:               *
 * the effect of hamiltonian and basis set                                     *
 * J. Comput. Chem. 25 (2004) 1873-1881                                        *
 *******************************************************************************



 ATOMS ISOTOPIC MASS (AMU) FOR FREQUENCY CALCULATION 

    1 O      15.9949    2 O      15.9949    3 O      15.9949    4 O      15.9949
    5 O      15.9949    6 O      15.9949    7 O      15.9949    8 O      15.9949
    9 N      14.0031   10 N      14.0031   11 N      14.0031   12 N      14.0031
   13 C      12.0000   14 C      12.0000   15 C      12.0000   16 C      12.0000
   17 C      12.0000   18 C      12.0000   19 C      12.0000   20 C      12.0000
   21 C      12.0000   22 C      12.0000   23 C      12.0000   24 C      12.0000
   25 C      12.0000   26 C      12.0000   27 C      12.0000   28 C      12.0000
   29 C      12.0000   30 C      12.0000   31 C      12.0000   32 C      12.0000
   33 C      12.0000   34 C      12.0000   35 C      12.0000   36 C      12.0000
   37 C      12.0000   38 C      12.0000   39 C      12.0000   40 C      12.0000
   41 C      12.0000   42 C      12.0000   43 C      12.0000   44 C      12.0000
   45 H       1.0078   46 H       1.0078   47 H       1.0078   48 H       1.0078
   49 H       1.0078   50 H       1.0078   51 H       1.0078   52 H       1.0078
   53 H       1.0078   54 H       1.0078   55 H       1.0078   56 H       1.0078
   57 H       1.0078   58 H       1.0078   59 H       1.0078   60 H       1.0078
   61 H       1.0078   62 H       1.0078   63 H       1.0078   64 H       1.0078
   65 H       1.0078   66 H       1.0078   67 H       1.0078   68 H       1.0078
   69 H       1.0078   70 H       1.0078   71 H       1.0078   72 H       1.0078
   73 H       1.0078   74 H       1.0078   75 H       1.0078   76 H       1.0078
   77 H       1.0078   78 H       1.0078   79 H       1.0078   80 H       1.0078

 INFORMATION CONCERNING THE SCF+GRADIENT CALCULATIONS REQUIRED FOR
 GENERATING FREQUENCIES. IN PRINCIPLE 3N+1 SCF + GRADIENT
 CALCULATIONS  ARE REQUIRED;
 FOR EACH OF THEM THE REMAINING POINT SYMMETRY IS INDICATED.
 POINT SYMMETRY PERMITS TO GENERATE GRADIENTS FOR DISPLACEMENT B 
 STARTING FROM THE GRADIENT GENERATED BY DISPLACEMENT A.

   N   LABEL SYMBOL DISPLACEMENT     SYM. 

   1     EQUILIBRIUM GEOMETRY            4

   2      1   O            DX           1
   3      1   O            DY           1
   4      1   O            DZ           1
   5      5   O            DX           1
   6      5   O            DY           1
   7      5   O            DZ           1
   8      9   N            DX           1
   9      9   N            DY           1
  10      9   N            DZ           1
  11     13   C            DX           1
  12     13   C            DY           1
  13     13   C            DZ           1
  14     17   C            DX           1
  15     17   C            DY           1
  16     17   C            DZ           1
  17     21   C            DX           1
  18     21   C            DY           1
  19     21   C            DZ           1
  20     25   C            DX           1
  21     25   C            DY           1
  22     25   C            DZ           1
  23     29   C            DX           1
  24     29   C            DY           1
  25     29   C            DZ           1
  26     33   C            DX           1
  27     33   C            DY           1
  28     33   C            DZ           1
  29     37   C            DX           1
  30     37   C            DY           1
  31     37   C            DZ           1
  32     41   C            DX           1
  33     41   C            DY           1
  34     41   C            DZ           1
  35     45   H            DX           1
  36     45   H            DY           1
  37     45   H            DZ           1
  38     49   H            DX           1
  39     49   H            DY           1
  40     49   H            DZ           1
  41     53   H            DX           1
  42     53   H            DY           1
  43     53   H            DZ           1
  44     57   H            DX           1
  45     57   H            DY           1
  46     57   H            DZ           1
  47     61   H            DX           1
  48     61   H            DY           1
  49     61   H            DZ           1
  50     65   H            DX           1
  51     65   H            DY           1
  52     65   H            DZ           1
  53     69   H            DX           1
  54     69   H            DY           1
  55     69   H            DZ           1
  56     73   H            DX           1
  57     73   H            DY           1
  58     73   H            DZ           1
  59     77   H            DX           1
  60     77   H            DY           1
  61     77   H            DZ           1
 USE OF RESIDUAL SYMMETRY AFTER DISPLACEMENT

 NUMERICAL GRADIENT COMPUTED WITH A SINGLE DISPLACEMENT (+DX) FOR EACH
 CARTESIAN COORDINATE WITH RESPECT TO THE EQUILIBRIUM CONFIGURATION
 DX=  0.003 ANGSTROM
 NUMBER OF IRREDUCIBLE ATOMS                    20
 NUMBER OF SCF+GRADIENT CALCULATIONS            61

  ATOM  SYMOP  ORDER
    1      1      1
    5      1      1
    9      1      1
   13      1      1
   17      1      1
   21      1      1
   25      1      1
   29      1      1
   33      1      1
   37      1      1
   41      1      1
   45      1      1
   49      1      1
   53      1      1
   57      1      1
   61      1      1
   65      1      1
   69      1      1
   73      1      1
   77      1      1

 ATOM  : IRREDUCIBLE ATOM
 SYMOP : NUMBER OF SYMMETRY OPERATORS THAT DOESN'T MOVE THE IRREDUCIBLE ATOM
 ORDER : MAXIMUM ORDER AMONG THE OPERATORS OF THE IRREDUCIBLE ATOM

 *******************************************************************************


 GCALCO - MAX INDICES DIRECT LATTICE VECTOR    20    14    11
 NO.OF VECTORS CREATED 6999 STARS 1869 RMAX   208.18718 BOHR

 CAPPA:IS1  4;IS2  4;IS3  2; K PTS MONK NET  18; SYMMOPS:K SPACE   4;G SPACE   4

 TTTTTTTTTTTTTTTTTTTTTTTTTTTTTT gordsh1     TELAPSE        4.40 TCPU        2.73

 MATRIX SIZE: P(G) 2137668, F(G)  199938, P(G) IRR  271139, F(G) IRR   50755
 MAX G-VECTOR INDEX FOR 1- AND 2-ELECTRON INTEGRALS  99

 TTTTTTTTTTTTTTTTTTTTTTTTTTTTTT INPUT       TELAPSE        4.42 TCPU        2.74

 SYMMETRY ALLOWED INTERNAL DEGREE(S) OF FREEDOM:  60
 TTTTTTTTTTTTTTTTTTTTTTTTTTTTTT SYMM        TELAPSE        4.44 TCPU        2.77
 TTTTTTTTTTTTTTTTTTTTTTTTTTTTTT INT_SCREEN  TELAPSE        4.45 TCPU        2.78
 INFORMATION **** EXCBUF **** EXCH. BIPO BUFFER: WORDS USED =     3636864

 DFT PARAMETERS

     ATOM       ELECTRONS   NET CHARGE   R(ANGSTROM)
   1   8  O       8.0000      0.0000     0.74000000
   9   7  N       7.0000      0.0000     0.74000000
  13   6  C       6.0000      0.0000     0.77000000
  45   1  H       1.0000      0.0000     1.11000000

 SIZE OF GRID=    1015582
 TTTTTTTTTTTTTTTTTTTTTTTTTTTTTT MAKE_GRID2  TELAPSE        7.44 TCPU        5.77
 BECKE WEIGHT FUNCTION
 RADSAFE =     2.00
 TOLERANCES - DENSITY:10**- 6; POTENTIAL:10**- 9; GRID WGT:10**-14

 RADIAL INTEGRATION  - INTERVALS (POINTS,UPPER LIMIT):            1( 99,  4.0*R)

 ANGULAR INTEGRATION - INTERVALS (ACCURACY LEVEL [N. POINTS] UPPER LIMIT):
  1(  6[ 146]   0.2)  2( 11[ 302]   0.5)  3( 14[ 590]   0.9)  4( 18[1454]   3.5)
  5( 14[ 590]9999.0)
 TTTTTTTTTTTTTTTTTTTTTTTTTTTTTT INT_CALC    TELAPSE        7.49 TCPU        5.81

 *******************************************************************************
 F1 vol step9 freq - PBEh-3c                                                     
 CRYSTAL - SCF - TYPE OF CALCULATION :  RESTRICTED CLOSED SHELL
 *******************************************************************************

 CAPPA:IS1  4;IS2  4;IS3  2; K PTS MONK NET  18; SYMMOPS:K SPACE   4;G SPACE   4

 TTTTTTTTTTTTTTTTTTTTTTTTTTTTTT SDIK        TELAPSE        7.76 TCPU        6.08

 AAAAAAAAAAAAAAAAAAAAAAAAAAAAAAAAAAAAAAAAAAAAAAAAAAAAAAAAAAAAAAAAAAAAAAAAAAAAAAA
         ATOMIC WAVEFUNCTION(S)


 NUCLEAR CHARGE  8.0  SYMMETRY SPECIES            S    P
 N. ELECTRONS    8.0  NUMBER OF PRIMITIVE GTOS    8    4
                      NUMBER OF CONTRACTED GTOS   4    2
                      NUMBER OF CLOSED SHELLS     2    0
                      OPEN SHELL OCCUPATION       0    4

  ZNUC SCFIT  TOTAL HF ENERGY   KINETIC ENERGY   VIRIAL THEOREM ACCURACY
   8.0  12   -7.477373220E+01  7.477365593E+01 -2.000001020E+00  3.8E-06

 NUCLEAR CHARGE  7.0  SYMMETRY SPECIES            S    P
 N. ELECTRONS    7.0  NUMBER OF PRIMITIVE GTOS    8    4
                      NUMBER OF CONTRACTED GTOS   4    2
                      NUMBER OF CLOSED SHELLS     2    0
                      OPEN SHELL OCCUPATION       0    3

  ZNUC SCFIT  TOTAL HF ENERGY   KINETIC ENERGY   VIRIAL THEOREM ACCURACY
   7.0   9   -5.437948210E+01  5.437948297E+01 -1.999999984E+00  1.2E-06

 NUCLEAR CHARGE  6.0  SYMMETRY SPECIES            S    P
 N. ELECTRONS    6.0  NUMBER OF PRIMITIVE GTOS    8    4
                      NUMBER OF CONTRACTED GTOS   4    2
                      NUMBER OF CLOSED SHELLS     2    0
                      OPEN SHELL OCCUPATION       0    2

  ZNUC SCFIT  TOTAL HF ENERGY   KINETIC ENERGY   VIRIAL THEOREM ACCURACY
   6.0   9   -3.767634636E+01  3.767630973E+01 -2.000000972E+00  4.2E-06

 NUCLEAR CHARGE  1.0  SYMMETRY SPECIES            S
 N. ELECTRONS    1.0  NUMBER OF PRIMITIVE GTOS    4
                      NUMBER OF CONTRACTED GTOS   2
                      NUMBER OF CLOSED SHELLS     0
                      OPEN SHELL OCCUPATION       1

  ZNUC SCFIT  TOTAL HF ENERGY   KINETIC ENERGY   VIRIAL THEOREM ACCURACY
   1.0   1   -4.977266687E-01  5.190767460E-01 -1.958869132E+00  2.2E-17

 AAAAAAAAAAAAAAAAAAAAAAAAAAAAAAAAAAAAAAAAAAAAAAAAAAAAAAAAAAAAAAAAAAAAAAAAAAAAAAA

 TTTTTTTTTTTTTTTTTTTTTTTTTTTTTT MOQGAD      TELAPSE        8.22 TCPU        6.44
 TTTTTTTTTTTTTTTTTTTTTTTTTTTTTT SHELLXN     TELAPSE       10.25 TCPU        8.46
 TTTTTTTTTTTTTTTTTTTTTTTTTTTTTT MONMO3      TELAPSE       11.29 TCPU        9.50
 NUMERICALLY INTEGRATED DENSITY    319.9998587831
 TTTTTTTTTTTTTTTTTTTTTTTTTTTTTT NUMDFT      TELAPSE       11.67 TCPU        9.87
 CYC   0 ETOT(AU) -2.070565413635E+03 DETOT -2.07E+03 tst  0.00E+00 PX  1.00E+00
 TTTTTTTTTTTTTTTTTTTTTTTTTTTTTT DIIS        TELAPSE       11.70 TCPU        9.91
 TTTTTTTTTTTTTTTTTTTTTTTTTTTTTT FDIK        TELAPSE       12.28 TCPU       10.49
 INSULATING STATE
 TOP OF VALENCE BANDS -    BAND    160; K    1; EIG -2.8330507E-01 AU
 BOTTOM OF VIRTUAL BANDS - BAND    161; K    7; EIG -1.2397848E-01 AU
 INDIRECT ENERGY BAND GAP:   4.3355 eV
 BOTTOM OF VIRTUAL BANDS - BAND    161; K    1; EIG -1.1901583E-01 AU
 TTTTTTTTTTTTTTTTTTTTTTTTTTTTTT PDIG        TELAPSE       12.63 TCPU       10.83
 TTTTTTTTTTTTTTTTTTTTTTTTTTTTTT MOQGAD      TELAPSE       12.63 TCPU       10.83
 TTTTTTTTTTTTTTTTTTTTTTTTTTTTTT SHELLXN     TELAPSE       14.77 TCPU       12.94
 TTTTTTTTTTTTTTTTTTTTTTTTTTTTTT MONMO3      TELAPSE       15.84 TCPU       14.02
 NUMERICALLY INTEGRATED DENSITY    319.9998755732
 TTTTTTTTTTTTTTTTTTTTTTTTTTTTTT NUMDFT      TELAPSE       16.27 TCPU       14.44
 CYC   1 ETOT(AU) -2.057237138431E+03 DETOT  1.33E+01 tst  0.00E+00 PX  1.00E+00
 TTTTTTTTTTTTTTTTTTTTTTTTTTTTTT DIIS        TELAPSE       16.36 TCPU       14.54
 DIIS TEST: 0.17746E+01 AT SCF   CYCLE   1 - MIX   50 %
 TTTTTTTTTTTTTTTTTTTTTTTTTTTTTT FDIK        TELAPSE       17.34 TCPU       14.63
 INSULATING STATE
 TOP OF VALENCE BANDS -    BAND    160; K   10; EIG -2.5087647E-01 AU
 TOP OF VALENCE BANDS -    BAND    160; K    1; EIG -2.5094095E-01 AU
 BOTTOM OF VIRTUAL BANDS - BAND    161; K    1; EIG -4.6695076E-02 AU
 INDIRECT ENERGY BAND GAP:   5.5561 eV
 TTTTTTTTTTTTTTTTTTTTTTTTTTTTTT PDIG        TELAPSE       17.69 TCPU       14.98
 TTTTTTTTTTTTTTTTTTTTTTTTTTTTTT MOQGAD      TELAPSE       17.69 TCPU       14.98
 TTTTTTTTTTTTTTTTTTTTTTTTTTTTTT SHELLXN     TELAPSE       19.82 TCPU       17.10
 TTTTTTTTTTTTTTTTTTTTTTTTTTTTTT MONMO3      TELAPSE       20.90 TCPU       18.18
 NUMERICALLY INTEGRATED DENSITY    319.9998676554
 TTTTTTTTTTTTTTTTTTTTTTTTTTTTTT NUMDFT      TELAPSE       21.35 TCPU       18.64
 CYC   2 ETOT(AU) -2.057706913914E+03 DETOT -4.70E-01 tst  9.59E-04 PX  1.29E-01
 TTTTTTTTTTTTTTTTTTTTTTTTTTTTTT DIIS        TELAPSE       21.39 TCPU       18.67
 DIIS TEST: 0.14499E+00 AT SCF   CYCLE   2 - DIIS ACTIVE - HISTORY:     2 CYCLES
 TTTTTTTTTTTTTTTTTTTTTTTTTTTTTT FDIK        TELAPSE       22.00 TCPU       19.26
 INSULATING STATE
 TOP OF VALENCE BANDS -    BAND    160; K   10; EIG -2.4271001E-01 AU
 TOP OF VALENCE BANDS -    BAND    160; K    1; EIG -2.4278797E-01 AU
 BOTTOM OF VIRTUAL BANDS - BAND    161; K    7; EIG -4.2685351E-03 AU
 INDIRECT ENERGY BAND GAP:   6.4883 eV
 BOTTOM OF VIRTUAL BANDS - BAND    161; K    1; EIG -1.9119536E-03 AU
 TTTTTTTTTTTTTTTTTTTTTTTTTTTTTT PDIG        TELAPSE       22.34 TCPU       19.61
 TTTTTTTTTTTTTTTTTTTTTTTTTTTTTT MOQGAD      TELAPSE       22.34 TCPU       19.61
 TTTTTTTTTTTTTTTTTTTTTTTTTTTTTT SHELLXN     TELAPSE       24.48 TCPU       21.74
 TTTTTTTTTTTTTTTTTTTTTTTTTTTTTT MONMO3      TELAPSE       25.56 TCPU       22.82
 NUMERICALLY INTEGRATED DENSITY    319.9998625560
 TTTTTTTTTTTTTTTTTTTTTTTTTTTTTT NUMDFT      TELAPSE       26.04 TCPU       23.30
 CYC   3 ETOT(AU) -2.057729122612E+03 DETOT -2.22E-02 tst  2.11E-04 PX  4.33E-02
 TTTTTTTTTTTTTTTTTTTTTTTTTTTTTT DIIS        TELAPSE       26.07 TCPU       23.34
 DIIS TEST: 0.81222E-01 AT SCF   CYCLE   3 - DIIS ACTIVE - HISTORY:     3 CYCLES
 TTTTTTTTTTTTTTTTTTTTTTTTTTTTTT FDIK        TELAPSE       26.65 TCPU       23.91
 INSULATING STATE
 TOP OF VALENCE BANDS -    BAND    160; K   10; EIG -2.5306504E-01 AU
 TOP OF VALENCE BANDS -    BAND    160; K    1; EIG -2.5318236E-01 AU
 BOTTOM OF VIRTUAL BANDS - BAND    161; K    7; EIG -1.1314086E-02 AU
 INDIRECT ENERGY BAND GAP:   6.5784 eV
 BOTTOM OF VIRTUAL BANDS - BAND    161; K    1; EIG -7.8110494E-03 AU
 TTTTTTTTTTTTTTTTTTTTTTTTTTTTTT PDIG        TELAPSE       26.99 TCPU       24.25
 TTTTTTTTTTTTTTTTTTTTTTTTTTTTTT MOQGAD      TELAPSE       27.00 TCPU       24.26
 TTTTTTTTTTTTTTTTTTTTTTTTTTTTTT SHELLXN     TELAPSE       29.14 TCPU       26.39
 TTTTTTTTTTTTTTTTTTTTTTTTTTTTTT MONMO3      TELAPSE       30.21 TCPU       27.45
 NUMERICALLY INTEGRATED DENSITY    319.9998646507
 TTTTTTTTTTTTTTTTTTTTTTTTTTTTTT NUMDFT      TELAPSE       30.66 TCPU       27.90
 CYC   4 ETOT(AU) -2.057747638640E+03 DETOT -1.85E-02 tst  1.20E-04 PX  3.24E-02
 TTTTTTTTTTTTTTTTTTTTTTTTTTTTTT DIIS        TELAPSE       30.83 TCPU       28.07
 DIIS TEST: 0.91312E-02 AT SCF   CYCLE   4 - DIIS ACTIVE - HISTORY:     4 CYCLES
 TTTTTTTTTTTTTTTTTTTTTTTTTTTTTT FDIK        TELAPSE       31.40 TCPU       28.64
 INSULATING STATE
 TOP OF VALENCE BANDS -    BAND    160; K   10; EIG -2.5075395E-01 AU
 TOP OF VALENCE BANDS -    BAND    160; K    1; EIG -2.5086679E-01 AU
 BOTTOM OF VIRTUAL BANDS - BAND    161; K    7; EIG -9.3446386E-03 AU
 INDIRECT ENERGY BAND GAP:   6.5691 eV
 BOTTOM OF VIRTUAL BANDS - BAND    161; K    1; EIG -6.5625873E-03 AU
 TTTTTTTTTTTTTTTTTTTTTTTTTTTTTT PDIG        TELAPSE       31.75 TCPU       28.99
 TTTTTTTTTTTTTTTTTTTTTTTTTTTTTT MOQGAD      TELAPSE       31.75 TCPU       28.99
 TTTTTTTTTTTTTTTTTTTTTTTTTTTTTT SHELLXN     TELAPSE       33.88 TCPU       31.11
 TTTTTTTTTTTTTTTTTTTTTTTTTTTTTT MONMO3      TELAPSE       34.96 TCPU       32.20
 NUMERICALLY INTEGRATED DENSITY    319.9998642176
 TTTTTTTTTTTTTTTTTTTTTTTTTTTTTT NUMDFT      TELAPSE       35.25 TCPU       32.49
 CYC   5 ETOT(AU) -2.057749793990E+03 DETOT -2.16E-03 tst  9.54E-06 PX  8.00E-03
 TTTTTTTTTTTTTTTTTTTTTTTTTTTTTT DIIS        TELAPSE       35.34 TCPU       32.57
 DIIS TEST: 0.84759E-03 AT SCF   CYCLE   5 - DIIS ACTIVE - HISTORY:     5 CYCLES
 TTTTTTTTTTTTTTTTTTTTTTTTTTTTTT FDIK        TELAPSE       35.92 TCPU       33.15
 INSULATING STATE
 TOP OF VALENCE BANDS -    BAND    160; K   10; EIG -2.5042626E-01 AU
 TOP OF VALENCE BANDS -    BAND    160; K    1; EIG -2.5053988E-01 AU
 BOTTOM OF VIRTUAL BANDS - BAND    161; K    7; EIG -9.0162318E-03 AU
 INDIRECT ENERGY BAND GAP:   6.5691 eV
 BOTTOM OF VIRTUAL BANDS - BAND    161; K    1; EIG -5.8933681E-03 AU
 TTTTTTTTTTTTTTTTTTTTTTTTTTTTTT PDIG        TELAPSE       36.26 TCPU       33.49
 TTTTTTTTTTTTTTTTTTTTTTTTTTTTTT MOQGAD      TELAPSE       36.26 TCPU       33.50
 TTTTTTTTTTTTTTTTTTTTTTTTTTTTTT SHELLXN     TELAPSE       38.39 TCPU       35.62
 TTTTTTTTTTTTTTTTTTTTTTTTTTTTTT MONMO3      TELAPSE       39.55 TCPU       36.78
 NUMERICALLY INTEGRATED DENSITY    319.9998640310
 TTTTTTTTTTTTTTTTTTTTTTTTTTTTTT NUMDFT      TELAPSE       40.02 TCPU       37.25
 CYC   6 ETOT(AU) -2.057749986875E+03 DETOT -1.93E-04 tst  1.44E-06 PX  1.81E-03
 TTTTTTTTTTTTTTTTTTTTTTTTTTTTTT DIIS        TELAPSE       40.06 TCPU       37.29
 DIIS TEST: 0.49258E-04 AT SCF   CYCLE   6 - DIIS ACTIVE - HISTORY:     6 CYCLES
 TTTTTTTTTTTTTTTTTTTTTTTTTTTTTT FDIK        TELAPSE       40.63 TCPU       37.86
 INSULATING STATE
 TOP OF VALENCE BANDS -    BAND    160; K   10; EIG -2.5035334E-01 AU
 TOP OF VALENCE BANDS -    BAND    160; K    1; EIG -2.5046293E-01 AU
 BOTTOM OF VIRTUAL BANDS - BAND    161; K    7; EIG -8.9978242E-03 AU
 INDIRECT ENERGY BAND GAP:   6.5676 eV
 BOTTOM OF VIRTUAL BANDS - BAND    161; K    1; EIG -5.7766749E-03 AU
 TTTTTTTTTTTTTTTTTTTTTTTTTTTTTT PDIG        TELAPSE       40.98 TCPU       38.21
 TTTTTTTTTTTTTTTTTTTTTTTTTTTTTT MOQGAD      TELAPSE       40.98 TCPU       38.21
 TTTTTTTTTTTTTTTTTTTTTTTTTTTTTT SHELLXN     TELAPSE       43.12 TCPU       40.33
 TTTTTTTTTTTTTTTTTTTTTTTTTTTTTT MONMO3      TELAPSE       44.19 TCPU       41.40
 NUMERICALLY INTEGRATED DENSITY    319.9998640175
 TTTTTTTTTTTTTTTTTTTTTTTTTTTTTT NUMDFT      TELAPSE       44.67 TCPU       41.88
 CYC   7 ETOT(AU) -2.057749997105E+03 DETOT -1.02E-05 tst  2.20E-07 PX  5.05E-04
 TTTTTTTTTTTTTTTTTTTTTTTTTTTTTT DIIS        TELAPSE       44.72 TCPU       41.93
 DIIS TEST: 0.78464E-05 AT SCF   CYCLE   7 - DIIS ACTIVE - HISTORY:     7 CYCLES
 TTTTTTTTTTTTTTTTTTTTTTTTTTTTTT FDIK        TELAPSE       45.56 TCPU       42.60
 INSULATING STATE
 TOP OF VALENCE BANDS -    BAND    160; K   10; EIG -2.5039068E-01 AU
 TOP OF VALENCE BANDS -    BAND    160; K    1; EIG -2.5050219E-01 AU
 BOTTOM OF VIRTUAL BANDS - BAND    161; K    7; EIG -9.0047966E-03 AU
 INDIRECT ENERGY BAND GAP:   6.5684 eV
 BOTTOM OF VIRTUAL BANDS - BAND    161; K    1; EIG -5.8293420E-03 AU
 TTTTTTTTTTTTTTTTTTTTTTTTTTTTTT PDIG        TELAPSE       45.91 TCPU       42.95
 TTTTTTTTTTTTTTTTTTTTTTTTTTTTTT MOQGAD      TELAPSE       45.91 TCPU       42.95
 TTTTTTTTTTTTTTTTTTTTTTTTTTTTTT SHELLXN     TELAPSE       48.05 TCPU       45.08
 TTTTTTTTTTTTTTTTTTTTTTTTTTTTTT MONMO3      TELAPSE       49.11 TCPU       46.13
 NUMERICALLY INTEGRATED DENSITY    319.9998640108
 TTTTTTTTTTTTTTTTTTTTTTTTTTTTTT NUMDFT      TELAPSE       49.59 TCPU       46.61
 CYC   8 ETOT(AU) -2.057749999620E+03 DETOT -2.51E-06 tst  1.49E-08 PX  1.84E-04
 TTTTTTTTTTTTTTTTTTTTTTTTTTTTTT DIIS        TELAPSE       49.62 TCPU       46.65
 DIIS TEST: 0.29525E-06 AT SCF   CYCLE   8 - DIIS ACTIVE - HISTORY:     8 CYCLES
 TTTTTTTTTTTTTTTTTTTTTTTTTTTTTT FDIK        TELAPSE       50.21 TCPU       47.23
 INSULATING STATE
 TOP OF VALENCE BANDS -    BAND    160; K   10; EIG -2.5039973E-01 AU
 TOP OF VALENCE BANDS -    BAND    160; K    1; EIG -2.5051052E-01 AU
 BOTTOM OF VIRTUAL BANDS - BAND    161; K    7; EIG -9.0091041E-03 AU
 INDIRECT ENERGY BAND GAP:   6.5686 eV
 BOTTOM OF VIRTUAL BANDS - BAND    161; K    1; EIG -5.8324809E-03 AU
 TTTTTTTTTTTTTTTTTTTTTTTTTTTTTT PDIG        TELAPSE       50.56 TCPU       47.58
 TTTTTTTTTTTTTTTTTTTTTTTTTTTTTT MOQGAD      TELAPSE       50.56 TCPU       47.58
 TTTTTTTTTTTTTTTTTTTTTTTTTTTTTT SHELLXN     TELAPSE       52.69 TCPU       49.70
 TTTTTTTTTTTTTTTTTTTTTTTTTTTTTT MONMO3      TELAPSE       53.77 TCPU       50.78
 NUMERICALLY INTEGRATED DENSITY    319.9998640122
 TTTTTTTTTTTTTTTTTTTTTTTTTTTTTT NUMDFT      TELAPSE       54.24 TCPU       51.26
 CYC   9 ETOT(AU) -2.057749999871E+03 DETOT -2.52E-07 tst  1.35E-09 PX  5.23E-05
 TTTTTTTTTTTTTTTTTTTTTTTTTTTTTT DIIS        TELAPSE       54.29 TCPU       51.30
 DIIS TEST: 0.72838E-07 AT SCF   CYCLE   9 - DIIS ACTIVE - HISTORY:     9 CYCLES
 TTTTTTTTTTTTTTTTTTTTTTTTTTTTTT FDIK        TELAPSE       54.86 TCPU       51.87
 INSULATING STATE
 TOP OF VALENCE BANDS -    BAND    160; K   10; EIG -2.5039831E-01 AU
 TOP OF VALENCE BANDS -    BAND    160; K    1; EIG -2.5050942E-01 AU
 BOTTOM OF VIRTUAL BANDS - BAND    161; K    7; EIG -9.0140920E-03 AU
 INDIRECT ENERGY BAND GAP:   6.5684 eV
 BOTTOM OF VIRTUAL BANDS - BAND    161; K    1; EIG -5.8299733E-03 AU
 TTTTTTTTTTTTTTTTTTTTTTTTTTTTTT PDIG        TELAPSE       55.21 TCPU       52.22
 TTTTTTTTTTTTTTTTTTTTTTTTTTTTTT MOQGAD      TELAPSE       55.21 TCPU       52.22
 TTTTTTTTTTTTTTTTTTTTTTTTTTTTTT SHELLXN     TELAPSE       57.34 TCPU       54.34
 TTTTTTTTTTTTTTTTTTTTTTTTTTTTTT MONMO3      TELAPSE       58.42 TCPU       55.42
 NUMERICALLY INTEGRATED DENSITY    319.9998640115
 TTTTTTTTTTTTTTTTTTTTTTTTTTTTTT NUMDFT      TELAPSE       58.78 TCPU       55.79
 CYC  10 ETOT(AU) -2.057749999887E+03 DETOT -1.55E-08 tst  1.07E-10 PX  2.59E-05
 TTTTTTTTTTTTTTTTTTTTTTTTTTTTTT DIIS        TELAPSE       58.82 TCPU       55.82
 DIIS TEST: 0.52442E-08 AT SCF   CYCLE  10 - DIIS ACTIVE - HISTORY:    10 CYCLES
 TTTTTTTTTTTTTTTTTTTTTTTTTTTTTT FDIK        TELAPSE       59.39 TCPU       56.40
 INSULATING STATE
 TOP OF VALENCE BANDS -    BAND    160; K   10; EIG -2.5039820E-01 AU
 TOP OF VALENCE BANDS -    BAND    160; K    1; EIG -2.5050927E-01 AU
 BOTTOM OF VIRTUAL BANDS - BAND    161; K    7; EIG -9.0120092E-03 AU
 INDIRECT ENERGY BAND GAP:   6.5685 eV
 BOTTOM OF VIRTUAL BANDS - BAND    161; K    1; EIG -5.8297388E-03 AU
 TTTTTTTTTTTTTTTTTTTTTTTTTTTTTT PDIG        TELAPSE       59.74 TCPU       56.74
 TTTTTTTTTTTTTTTTTTTTTTTTTTTTTT MOQGAD      TELAPSE       59.74 TCPU       56.74
 TTTTTTTTTTTTTTTTTTTTTTTTTTTTTT SHELLXN     TELAPSE       61.87 TCPU       58.87
 TTTTTTTTTTTTTTTTTTTTTTTTTTTTTT MONMO3      TELAPSE       62.95 TCPU       59.95
 NUMERICALLY INTEGRATED DENSITY    319.9998640113
 TTTTTTTTTTTTTTTTTTTTTTTTTTTTTT NUMDFT      TELAPSE       63.43 TCPU       60.42
 CYC  11 ETOT(AU) -2.057749999904E+03 DETOT -1.72E-08 tst  1.11E-11 PX  5.78E-06
 TTTTTTTTTTTTTTTTTTTTTTTTTTTTTT DIIS        TELAPSE       63.46 TCPU       60.46
 DIIS TEST: 0.42822E-09 AT SCF   CYCLE  11 - DIIS ACTIVE - HISTORY:    11 CYCLES
 TTTTTTTTTTTTTTTTTTTTTTTTTTTTTT FDIK        TELAPSE       64.04 TCPU       61.04
 INSULATING STATE
 TOP OF VALENCE BANDS -    BAND    160; K   10; EIG -2.5039777E-01 AU
 TOP OF VALENCE BANDS -    BAND    160; K    1; EIG -2.5050886E-01 AU
 BOTTOM OF VIRTUAL BANDS - BAND    161; K    7; EIG -9.0120098E-03 AU
 INDIRECT ENERGY BAND GAP:   6.5684 eV
 BOTTOM OF VIRTUAL BANDS - BAND    161; K    1; EIG -5.8295410E-03 AU
 TTTTTTTTTTTTTTTTTTTTTTTTTTTTTT PDIG        TELAPSE       64.39 TCPU       61.38
 TTTTTTTTTTTTTTTTTTTTTTTTTTTTTT MOQGAD      TELAPSE       64.39 TCPU       61.38
 TTTTTTTTTTTTTTTTTTTTTTTTTTTTTT SHELLXN     TELAPSE       66.51 TCPU       63.51
 TTTTTTTTTTTTTTTTTTTTTTTTTTTTTT MONMO3      TELAPSE       67.60 TCPU       64.59
 NUMERICALLY INTEGRATED DENSITY    319.9998640114
 TTTTTTTTTTTTTTTTTTTTTTTTTTTTTT NUMDFT      TELAPSE       68.07 TCPU       65.06
 CYC  12 ETOT(AU) -2.057749999902E+03 DETOT  2.63E-09 tst  9.71E-13 PX  1.56E-06
 TTTTTTTTTTTTTTTTTTTTTTTTTTTTTT DIIS        TELAPSE       68.11 TCPU       65.10
 DIIS TEST: 0.35304E-10 AT SCF   CYCLE  12 - DIIS ACTIVE - HISTORY:    12 CYCLES
 TTTTTTTTTTTTTTTTTTTTTTTTTTTTTT FDIK        TELAPSE       68.68 TCPU       65.51
 INSULATING STATE
 TOP OF VALENCE BANDS -    BAND    160; K   10; EIG -2.5039767E-01 AU
 TOP OF VALENCE BANDS -    BAND    160; K    1; EIG -2.5050876E-01 AU
 BOTTOM OF VIRTUAL BANDS - BAND    161; K    7; EIG -9.0118698E-03 AU
 INDIRECT ENERGY BAND GAP:   6.5684 eV
 BOTTOM OF VIRTUAL BANDS - BAND    161; K    1; EIG -5.8293743E-03 AU
 TTTTTTTTTTTTTTTTTTTTTTTTTTTTTT PDIG        TELAPSE       69.03 TCPU       65.86
 TTTTTTTTTTTTTTTTTTTTTTTTTTTTTT MOQGAD      TELAPSE       69.03 TCPU       65.86
 TTTTTTTTTTTTTTTTTTTTTTTTTTTTTT SHELLXN     TELAPSE       71.15 TCPU       67.98
 TTTTTTTTTTTTTTTTTTTTTTTTTTTTTT MONMO3      TELAPSE       72.24 TCPU       69.06
 NUMERICALLY INTEGRATED DENSITY    319.9998640114
 TTTTTTTTTTTTTTTTTTTTTTTTTTTTTT NUMDFT      TELAPSE       72.71 TCPU       69.54
 CYC  13 ETOT(AU) -2.057749999902E+03 DETOT -2.27E-12 tst  1.27E-13 PX  4.50E-07
 TTTTTTTTTTTTTTTTTTTTTTTTTTTTTT DIIS        TELAPSE       72.75 TCPU       69.58
 DIIS TEST: 0.19256E-11 AT SCF   CYCLE  13 - DIIS ACTIVE - HISTORY:    13 CYCLES
 TTTTTTTTTTTTTTTTTTTTTTTTTTTTTT FDIK        TELAPSE       73.33 TCPU       70.15
 INSULATING STATE
 TOP OF VALENCE BANDS -    BAND    160; K   10; EIG -2.5039763E-01 AU
[...]
Note: The following floating-point exceptions are signalling: IEEE_UNDERFLOW_FLAG IEEE_DENORMAL
Note: The following floating-point exceptions are signalling: IEEE_UNDERFLOW_FLAG IEEE_DENORMAL
Note: The following floating-point exceptions are signalling: IEEE_UNDERFLOW_FLAG IEEE_DENORMAL
Note: The following floating-point exceptions are signalling: IEEE_UNDERFLOW_FLAG IEEE_DENORMAL
Note: The following floating-point exceptions are signalling: IEEE_UNDERFLOW_FLAG IEEE_DENORMAL
Note: The following floating-point exceptions are signalling: IEEE_UNDERFLOW_FLAG IEEE_DENORMAL
Note: The following floating-point exceptions are signalling: IEEE_UNDERFLOW_FLAG IEEE_DENORMAL
Note: The following floating-point exceptions are signalling: IEEE_UNDERFLOW_FLAG IEEE_DENORMAL
Note: The following floating-point exceptions are signalling: IEEE_UNDERFLOW_FLAG IEEE_DENORMAL
Note: The following floating-point exceptions are signalling: IEEE_UNDERFLOW_FLAG IEEE_DENORMAL
Note: The following floating-point exceptions are signalling: IEEE_UNDERFLOW_FLAG IEEE_DENORMAL
Note: The following floating-point exceptions are signalling: IEEE_UNDERFLOW_FLAG IEEE_DENORMAL
Note: The following floating-point exceptions are signalling: IEEE_UNDERFLOW_FLAG IEEE_DENORMAL
Note: The following floating-point exceptions are signalling: IEEE_UNDERFLOW_FLAG IEEE_DENORMAL
Note: The following floating-point exceptions are signalling: IEEE_UNDERFLOW_FLAG IEEE_DENORMAL
Note: The following floating-point exceptions are signalling: IEEE_UNDERFLOW_FLAG IEEE_DENORMAL
Note: The following floating-point exceptions are signalling: IEEE_UNDERFLOW_FLAG IEEE_DENORMAL
Note: The following floating-point exceptions are signalling: IEEE_UNDERFLOW_FLAG IEEE_DENORMAL
Note: The following floating-point exceptions are signalling: IEEE_UNDERFLOW_FLAG IEEE_DENORMAL
Note: The following floating-point exceptions are signalling: IEEE_UNDERFLOW_FLAG IEEE_DENORMAL
Note: The following floating-point exceptions are signalling: IEEE_UNDERFLOW_FLAG IEEE_DENORMAL
Note: The following floating-point exceptions are signalling: IEEE_UNDERFLOW_FLAG IEEE_DENORMAL
Note: The following floating-point exceptions are signalling: IEEE_UNDERFLOW_FLAG IEEE_DENORMAL
Note: The following floating-point exceptions are signalling: IEEE_UNDERFLOW_FLAG IEEE_DENORMAL
Note: The following floating-point exceptions are signalling: IEEE_UNDERFLOW_FLAG IEEE_DENORMAL
Note: The following floating-point exceptions are signalling: IEEE_UNDERFLOW_FLAG IEEE_DENORMAL
Note: The following floating-point exceptions are signalling: IEEE_UNDERFLOW_FLAG IEEE_DENORMAL
Note: The following floating-point exceptions are signalling: IEEE_UNDERFLOW_FLAG IEEE_DENORMAL
Note: The following floating-point exceptions are signalling: IEEE_UNDERFLOW_FLAG IEEE_DENORMAL
Note: The following floating-point exceptions are signalling: IEEE_UNDERFLOW_FLAG IEEE_DENORMAL
Note: The following floating-point exceptions are signalling: IEEE_UNDERFLOW_FLAG IEEE_DENORMAL
Note: The following floating-point exceptions are signalling: IEEE_UNDERFLOW_FLAG IEEE_DENORMAL
Note: The following floating-point exceptions are signalling: IEEE_UNDERFLOW_FLAG IEEE_DENORMAL
Note: The following floating-point exceptions are signalling: IEEE_UNDERFLOW_FLAG IEEE_DENORMAL
Note: The following floating-point exceptions are signalling: IEEE_UNDERFLOW_FLAG IEEE_DENORMAL
Note: The following floating-point exceptions are signalling: IEEE_UNDERFLOW_FLAG IEEE_DENORMAL
Note: The following floating-point exceptions are signalling: IEEE_UNDERFLOW_FLAG IEEE_DENORMAL
Note: The following floating-point exceptions are signalling: IEEE_UNDERFLOW_FLAG IEEE_DENORMAL
Note: The following floating-point exceptions are signalling: IEEE_UNDERFLOW_FLAG IEEE_DENORMAL
Note: The following floating-point exceptions are signalling: IEEE_UNDERFLOW_FLAG IEEE_DENORMAL
Note: The following floating-point exceptions are signalling: IEEE_UNDERFLOW_FLAG IEEE_DENORMAL
Note: The following floating-point exceptions are signalling: IEEE_UNDERFLOW_FLAG IEEE_DENORMAL
Note: The following floating-point exceptions are signalling: IEEE_UNDERFLOW_FLAG IEEE_DENORMAL
Note: The following floating-point exceptions are signalling: IEEE_UNDERFLOW_FLAG IEEE_DENORMAL
Note: The following floating-point exceptions are signalling: IEEE_UNDERFLOW_FLAG IEEE_DENORMAL
Note: The following floating-point exceptions are signalling: IEEE_UNDERFLOW_FLAG IEEE_DENORMAL
Note: The following floating-point exceptions are signalling: IEEE_UNDERFLOW_FLAG IEEE_DENORMAL
Note: The following floating-point exceptions are signalling: IEEE_UNDERFLOW_FLAG IEEE_DENORMAL
Note: The following floating-point exceptions are signalling: IEEE_UNDERFLOW_FLAG IEEE_DENORMAL
Note: The following floating-point exceptions are signalling: IEEE_UNDERFLOW_FLAG IEEE_DENORMAL
Note: The following floating-point exceptions are signalling: IEEE_UNDERFLOW_FLAG IEEE_DENORMAL
Note: The following floating-point exceptions are signalling: IEEE_UNDERFLOW_FLAG IEEE_DENORMAL
Note: The following floating-point exceptions are signalling: IEEE_UNDERFLOW_FLAG IEEE_DENORMAL
Note: The following floating-point exceptions are signalling: IEEE_UNDERFLOW_FLAG IEEE_DENORMAL
Note: The following floating-point exceptions are signalling: IEEE_UNDERFLOW_FLAG IEEE_DENORMAL
Note: The following floating-point exceptions are signalling: IEEE_UNDERFLOW_FLAG IEEE_DENORMAL
Note: The following floating-point exceptions are signalling: IEEE_UNDERFLOW_FLAG IEEE_DENORMAL
Note: The following floating-point exceptions are signalling: IEEE_UNDERFLOW_FLAG IEEE_DENORMAL
Note: The following floating-point exceptions are signalling: IEEE_UNDERFLOW_FLAG IEEE_DENORMAL
Note: The following floating-point exceptions are signalling: IEEE_UNDERFLOW_FLAG IEEE_DENORMAL
Note: The following floating-point exceptions are signalling: IEEE_UNDERFLOW_FLAG IEEE_DENORMAL
Note: The following floating-point exceptions are signalling: IEEE_UNDERFLOW_FLAG IEEE_DENORMAL
Note: The following floating-point exceptions are signalling: IEEE_UNDERFLOW_FLAG IEEE_DENORMAL
Note: The following floating-point exceptions are signalling: IEEE_UNDERFLOW_FLAG IEEE_DENORMAL
Note: The following floating-point exceptions are signalling: IEEE_UNDERFLOW_FLAG IEEE_DENORMAL
Note: The following floating-point exceptions are signalling: IEEE_UNDERFLOW_FLAG IEEE_DENORMAL
Note: The following floating-point exceptions are signalling: IEEE_UNDERFLOW_FLAG IEEE_DENORMAL
Note: The following floating-point exceptions are signalling: IEEE_UNDERFLOW_FLAG IEEE_DENORMAL
Note: The following floating-point exceptions are signalling: IEEE_UNDERFLOW_FLAG IEEE_DENORMAL
Note: The following floating-point exceptions are signalling: IEEE_UNDERFLOW_FLAG IEEE_DENORMAL
Note: The following floating-point exceptions are signalling: IEEE_UNDERFLOW_FLAG IEEE_DENORMAL
Note: The following floating-point exceptions are signalling: IEEE_UNDERFLOW_FLAG IEEE_DENORMAL
Note: The following floating-point exceptions are signalling: IEEE_UNDERFLOW_FLAG IEEE_DENORMAL
Note: The following floating-point exceptions are signalling: IEEE_UNDERFLOW_FLAG IEEE_DENORMAL
Note: The following floating-point exceptions are signalling: IEEE_UNDERFLOW_FLAG IEEE_DENORMAL
Note: The following floating-point exceptions are signalling: IEEE_UNDERFLOW_FLAG IEEE_DENORMAL
Note: The following floating-point exceptions are signalling: IEEE_UNDERFLOW_FLAG IEEE_DENORMAL
Note: The following floating-point exceptions are signalling: IEEE_UNDERFLOW_FLAG IEEE_DENORMAL
Note: The following floating-point exceptions are signalling: IEEE_UNDERFLOW_FLAG IEEE_DENORMAL
Note: The following floating-point exceptions are signalling: IEEE_UNDERFLOW_FLAG IEEE_DENORMAL
Note: The following floating-point exceptions are signalling: IEEE_UNDERFLOW_FLAG IEEE_DENORMAL
Note: The following floating-point exceptions are signalling: IEEE_UNDERFLOW_FLAG IEEE_DENORMAL
Note: The following floating-point exceptions are signalling: IEEE_UNDERFLOW_FLAG IEEE_DENORMAL
Note: The following floating-point exceptions are signalling: IEEE_UNDERFLOW_FLAG IEEE_DENORMAL
Note: The following floating-point exceptions are signalling: IEEE_UNDERFLOW_FLAG IEEE_DENORMAL
Note: The following floating-point exceptions are signalling: IEEE_UNDERFLOW_FLAG IEEE_DENORMAL
Note: The following floating-point exceptions are signalling: IEEE_UNDERFLOW_FLAG IEEE_DENORMAL
Note: The following floating-point exceptions are signalling: IEEE_UNDERFLOW_FLAG IEEE_DENORMAL
Note: The following floating-point exceptions are signalling: IEEE_UNDERFLOW_FLAG IEEE_DENORMAL
Note: The following floating-point exceptions are signalling: IEEE_UNDERFLOW_FLAG IEEE_DENORMAL
Note: The following floating-point exceptions are signalling: IEEE_UNDERFLOW_FLAG IEEE_DENORMAL
Note: The following floating-point exceptions are signalling: IEEE_UNDERFLOW_FLAG IEEE_DENORMAL
Note: The following floating-point exceptions are signalling: IEEE_UNDERFLOW_FLAG IEEE_DENORMAL
Note: The following floating-point exceptions are signalling: IEEE_UNDERFLOW_FLAG IEEE_DENORMAL
Note: The following floating-point exceptions are signalling: IEEE_UNDERFLOW_FLAG IEEE_DENORMAL
Note: The following floating-point exceptions are signalling: IEEE_UNDERFLOW_FLAG IEEE_DENORMAL
Note: The following floating-point exceptions are signalling: IEEE_UNDERFLOW_FLAG IEEE_DENORMAL
Note: The following floating-point exceptions are signalling: IEEE_UNDERFLOW_FLAG IEEE_DENORMAL
Note: The following floating-point exceptions are signalling: IEEE_UNDERFLOW_FLAG IEEE_DENORMAL
Note: The following floating-point exceptions are signalling: IEEE_UNDERFLOW_FLAG IEEE_DENORMAL
Note: The following floating-point exceptions are signalling: IEEE_UNDERFLOW_FLAG IEEE_DENORMAL
Note: The following floating-point exceptions are signalling: IEEE_UNDERFLOW_FLAG IEEE_DENORMAL
Note: The following floating-point exceptions are signalling: IEEE_UNDERFLOW_FLAG IEEE_DENORMAL
Note: The following floating-point exceptions are signalling: IEEE_UNDERFLOW_FLAG IEEE_DENORMAL
Note: The following floating-point exceptions are signalling: IEEE_UNDERFLOW_FLAG IEEE_DENORMAL
Note: The following floating-point exceptions are signalling: IEEE_UNDERFLOW_FLAG IEEE_DENORMAL
Note: The following floating-point exceptions are signalling: IEEE_UNDERFLOW_FLAG IEEE_DENORMAL
Note: The following floating-point exceptions are signalling: IEEE_UNDERFLOW_FLAG IEEE_DENORMAL
Note: The following floating-point exceptions are signalling: IEEE_UNDERFLOW_FLAG IEEE_DENORMAL
Note: The following floating-point exceptions are signalling: IEEE_UNDERFLOW_FLAG IEEE_DENORMAL
Note: The following floating-point exceptions are signalling: IEEE_UNDERFLOW_FLAG IEEE_DENORMAL
Note: The following floating-point exceptions are signalling: IEEE_UNDERFLOW_FLAG IEEE_DENORMAL
Note: The following floating-point exceptions are signalling: IEEE_UNDERFLOW_FLAG IEEE_DENORMAL
Note: The following floating-point exceptions are signalling: IEEE_UNDERFLOW_FLAG IEEE_DENORMAL
Note: The following floating-point exceptions are signalling: IEEE_UNDERFLOW_FLAG IEEE_DENORMAL
Note: The following floating-point exceptions are signalling: IEEE_UNDERFLOW_FLAG IEEE_DENORMAL
Note: The following floating-point exceptions are signalling: IEEE_UNDERFLOW_FLAG IEEE_DENORMAL
Note: The following floating-point exceptions are signalling: IEEE_UNDERFLOW_FLAG IEEE_DENORMAL
Note: The following floating-point exceptions are signalling: IEEE_UNDERFLOW_FLAG IEEE_DENORMAL
Note: The following floating-point exceptions are signalling: IEEE_UNDERFLOW_FLAG IEEE_DENORMAL
Note: The following floating-point exceptions are signalling: IEEE_UNDERFLOW_FLAG IEEE_DENORMAL
Note: The following floating-point exceptions are signalling: IEEE_UNDERFLOW_FLAG IEEE_DENORMAL
Note: The following floating-point exceptions are signalling: IEEE_UNDERFLOW_FLAG IEEE_DENORMAL
Note: The following floating-point exceptions are signalling: IEEE_UNDERFLOW_FLAG IEEE_DENORMAL
Note: The following floating-point exceptions are signalling: IEEE_UNDERFLOW_FLAG IEEE_DENORMAL
Note: The following floating-point exceptions are signalling: IEEE_UNDERFLOW_FLAG IEEE_DENORMAL
Note: The following floating-point exceptions are signalling: IEEE_UNDERFLOW_FLAG IEEE_DENORMAL
Note: The following floating-point exceptions are signalling: IEEE_UNDERFLOW_FLAG IEEE_DENORMAL
Note: The following floating-point exceptions are signalling: IEEE_UNDERFLOW_FLAG IEEE_DENORMAL
Note: The following floating-point exceptions are signalling: IEEE_UNDERFLOW_FLAG IEEE_DENORMAL
Note: The following floating-point exceptions are signalling: IEEE_UNDERFLOW_FLAG IEEE_DENORMAL
Note: The following floating-point exceptions are signalling: IEEE_UNDERFLOW_FLAG IEEE_DENORMAL
Note: The following floating-point exceptions are signalling: IEEE_UNDERFLOW_FLAG IEEE_DENORMAL
Note: The following floating-point exceptions are signalling: IEEE_UNDERFLOW_FLAG IEEE_DENORMAL
Note: The following floating-point exceptions are signalling: IEEE_UNDERFLOW_FLAG IEEE_DENORMAL
Note: The following floating-point exceptions are signalling: IEEE_UNDERFLOW_FLAG IEEE_DENORMAL
Note: The following floating-point exceptions are signalling: IEEE_UNDERFLOW_FLAG IEEE_DENORMAL
Note: The following floating-point exceptions are signalling: IEEE_UNDERFLOW_FLAG IEEE_DENORMAL
Note: The following floating-point exceptions are signalling: IEEE_UNDERFLOW_FLAG IEEE_DENORMAL
Note: The following floating-point exceptions are signalling: IEEE_UNDERFLOW_FLAG IEEE_DENORMAL
Note: The following floating-point exceptions are signalling: IEEE_UNDERFLOW_FLAG IEEE_DENORMAL
Note: The following floating-point exceptions are signalling: IEEE_UNDERFLOW_FLAG IEEE_DENORMAL
Note: The following floating-point exceptions are signalling: IEEE_UNDERFLOW_FLAG IEEE_DENORMAL
Note: The following floating-point exceptions are signalling: IEEE_UNDERFLOW_FLAG IEEE_DENORMAL
Note: The following floating-point exceptions are signalling: IEEE_UNDERFLOW_FLAG IEEE_DENORMAL
Note: The following floating-point exceptions are signalling: IEEE_UNDERFLOW_FLAG IEEE_DENORMAL
Note: The following floating-point exceptions are signalling: IEEE_UNDERFLOW_FLAG IEEE_DENORMAL
Note: The following floating-point exceptions are signalling: IEEE_UNDERFLOW_FLAG IEEE_DENORMAL
Note: The following floating-point exceptions are signalling: IEEE_UNDERFLOW_FLAG IEEE_DENORMAL
Note: The following floating-point exceptions are signalling: IEEE_UNDERFLOW_FLAG IEEE_DENORMAL
Note: The following floating-point exceptions are signalling: IEEE_UNDERFLOW_FLAG IEEE_DENORMAL
Note: The following floating-point exceptions are signalling: IEEE_UNDERFLOW_FLAG IEEE_DENORMAL
Note: The following floating-point exceptions are signalling: IEEE_UNDERFLOW_FLAG IEEE_DENORMAL
Note: The following floating-point exceptions are signalling: IEEE_UNDERFLOW_FLAG IEEE_DENORMAL
Note: The following floating-point exceptions are signalling: IEEE_UNDERFLOW_FLAG IEEE_DENORMAL
Note: The following floating-point exceptions are signalling: IEEE_UNDERFLOW_FLAG IEEE_DENORMAL
Note: The following floating-point exceptions are signalling: IEEE_UNDERFLOW_FLAG IEEE_DENORMAL
Note: The following floating-point exceptions are signalling: IEEE_UNDERFLOW_FLAG IEEE_DENORMAL
Note: The following floating-point exceptions are signalling: IEEE_UNDERFLOW_FLAG IEEE_DENORMAL
Note: The following floating-point exceptions are signalling: IEEE_UNDERFLOW_FLAG IEEE_DENORMAL
Note: The following floating-point exceptions are signalling: IEEE_UNDERFLOW_FLAG IEEE_DENORMAL
Note: The following floating-point exceptions are signalling: IEEE_UNDERFLOW_FLAG IEEE_DENORMAL
Note: The following floating-point exceptions are signalling: IEEE_UNDERFLOW_FLAG IEEE_DENORMAL
Note: The following floating-point exceptions are signalling: IEEE_UNDERFLOW_FLAG IEEE_DENORMAL
Note: The following floating-point exceptions are signalling: IEEE_UNDERFLOW_FLAG IEEE_DENORMAL
Note: The following floating-point exceptions are signalling: IEEE_UNDERFLOW_FLAG IEEE_DENORMAL
Note: The following floating-point exceptions are signalling: IEEE_UNDERFLOW_FLAG IEEE_DENORMAL
Note: The following floating-point exceptions are signalling: IEEE_UNDERFLOW_FLAG IEEE_DENORMAL
Note: The following floating-point exceptions are signalling: IEEE_UNDERFLOW_FLAG IEEE_DENORMAL
Note: The following floating-point exceptions are signalling: IEEE_UNDERFLOW_FLAG IEEE_DENORMAL
Note: The following floating-point exceptions are signalling: IEEE_UNDERFLOW_FLAG IEEE_DENORMAL
Note: The following floating-point exceptions are signalling: IEEE_UNDERFLOW_FLAG IEEE_DENORMAL
Note: The following floating-point exceptions are signalling: IEEE_UNDERFLOW_FLAG IEEE_DENORMAL
Note: The following floating-point exceptions are signalling: IEEE_UNDERFLOW_FLAG IEEE_DENORMAL
Note: The following floating-point exceptions are signalling: IEEE_UNDERFLOW_FLAG IEEE_DENORMAL
Note: The following floating-point exceptions are signalling: IEEE_UNDERFLOW_FLAG IEEE_DENORMAL
Note: The following floating-point exceptions are signalling: IEEE_UNDERFLOW_FLAG IEEE_DENORMAL
Note: The following floating-point exceptions are signalling: IEEE_UNDERFLOW_FLAG IEEE_DENORMAL
Note: The following floating-point exceptions are signalling: IEEE_UNDERFLOW_FLAG IEEE_DENORMAL
Note: The following floating-point exceptions are signalling: IEEE_UNDERFLOW_FLAG IEEE_DENORMAL
Note: The following floating-point exceptions are signalling: IEEE_UNDERFLOW_FLAG IEEE_DENORMAL
Note: The following floating-point exceptions are signalling: IEEE_UNDERFLOW_FLAG IEEE_DENORMAL
Note: The following floating-point exceptions are signalling: IEEE_UNDERFLOW_FLAG IEEE_DENORMAL
Note: The following floating-point exceptions are signalling: IEEE_UNDERFLOW_FLAG IEEE_DENORMAL
Note: The following floating-point exceptions are signalling: IEEE_UNDERFLOW_FLAG IEEE_DENORMAL
Note: The following floating-point exceptions are signalling: IEEE_UNDERFLOW_FLAG IEEE_DENORMAL
Note: The following floating-point exceptions are signalling: IEEE_UNDERFLOW_FLAG IEEE_DENORMAL
Note: The following floating-point exceptions are signalling: IEEE_UNDERFLOW_FLAG IEEE_DENORMAL
Note: The following floating-point exceptions are signalling: IEEE_UNDERFLOW_FLAG IEEE_DENORMAL
Note: The following floating-point exceptions are signalling: IEEE_UNDERFLOW_FLAG IEEE_DENORMAL
Note: The following floating-point exceptions are signalling: IEEE_UNDERFLOW_FLAG IEEE_DENORMAL
Note: The following floating-point exceptions are signalling: IEEE_UNDERFLOW_FLAG IEEE_DENORMAL
Note: The following floating-point exceptions are signalling: IEEE_UNDERFLOW_FLAG IEEE_DENORMAL
Note: The following floating-point exceptions are signalling: IEEE_UNDERFLOW_FLAG IEEE_DENORMAL
Note: The following floating-point exceptions are signalling: IEEE_UNDERFLOW_FLAG IEEE_DENORMAL
Note: The following floating-point exceptions are signalling: IEEE_UNDERFLOW_FLAG IEEE_DENORMAL
Note: The following floating-point exceptions are signalling: IEEE_UNDERFLOW_FLAG IEEE_DENORMAL
Note: The following floating-point exceptions are signalling: IEEE_UNDERFLOW_FLAG IEEE_DENORMAL
Note: The following floating-point exceptions are signalling: IEEE_UNDERFLOW_FLAG IEEE_DENORMAL
Note: The following floating-point exceptions are signalling: IEEE_UNDERFLOW_FLAG IEEE_DENORMAL
Note: The following floating-point exceptions are signalling: IEEE_UNDERFLOW_FLAG IEEE_DENORMAL
Note: The following floating-point exceptions are signalling: IEEE_UNDERFLOW_FLAG IEEE_DENORMAL
Note: The following floating-point exceptions are signalling: IEEE_UNDERFLOW_FLAG IEEE_DENORMAL
Note: The following floating-point exceptions are signalling: IEEE_UNDERFLOW_FLAG IEEE_DENORMAL
Note: The following floating-point exceptions are signalling: IEEE_UNDERFLOW_FLAG IEEE_DENORMAL
Note: The following floating-point exceptions are signalling: IEEE_UNDERFLOW_FLAG IEEE_DENORMAL
Note: The following floating-point exceptions are signalling: IEEE_UNDERFLOW_FLAG IEEE_DENORMAL
Note: The following floating-point exceptions are signalling: IEEE_UNDERFLOW_FLAG IEEE_DENORMAL
