Lmod has detected the following error: The following module(s) are unknown:
"epcc-job-env"

Please check the spelling or version number. Also try "module spider ..."
It is also possible your cache file is out-of-date; it may help to try:
  $ module --ignore-cache load "epcc-job-env"

Also make sure that all modulefiles written in TCL start with the string
#%Module




Warning: You have enabled access to software packages installed
by external parties on ARCHER2 or those that are not fully-supported.
The ARCHER2 CSE service does not test these packages. The service desk
will make reasonable efforts to assist with questions on the use of
these packages but some issues may not be able to be resolved by the
service and they may direct you to seek help from external parties.


         512 PROCESSORS WORKING

         
 *******************************************************************************
 *                                                                             *
 *                               CRYSTAL17                                     *
 *                      public : 1.0.2 - March 1st, 2018 STFC/Archer2 build    *
 *                       HTTP://WWW.CRYSTAL.UNITO.IT                           *
 *                                                                             *
 *                              MAIN AUTHORS                                   *
 *                                                                             *
 *  R. DOVESI(1,11), V.R. SAUNDERS(2), C. ROETTI(1,11), R. ORLANDO(1,11),      *
 *  C.M. ZICOVICH-WILSON(1,3), F. PASCALE(4), B. CIVALLERI(1,11),              *
 *  K. DOLL(5), N.M. HARRISON(2,6), I.J. BUSH(7), Ph. D'ARCO(8),               *
 *  M. LLUNELL(9), M. CAUSA'(10), Y. NOEL(8), L. MASCHIO(1,11), A. ERBA(1,11)  *
 *  M. RE'RAT(14), S. CASASSA(1,11)                                            *
 *                                                                             *
 *        CONTRIBUTIONS TO THE CODE HAVE ALSO BEEN GIVEN BY                    *
 *                                                                             *
 *  M. FERRABONE(1,11), M. DE LA PIERRE(1,11), M. FERRERO(1,11),               *
 *  J. BAIMA(1,11), E. ALBANESE(1,11), M.F. PEINTINGER(12), R. BAST(13),       *
 *  B. KIRTMAN(15), V. LACIVITA(1,11), R. DEMICHELIS(1,16)                     *
 *  G. BRANDEBURG(17), S. SALUSTRO(1,11), G. SANSONE(1,11)                     *
 *  M.T. RUGGIERO(18)                                                          *
 *                                                                             *
 * (1) THEORETICAL CHEMISTRY GROUP - UNIVERSITA' DI TORINO - TORINO (ITALY)    *
 * (2) COMPUTATIONAL SCIENCE & ENGINEERING DEPARTMENT - STFC DARESBURY (UK)    *
 * (3) UNIVERSIDAD AUTONOMA DEL ESTADO DE MORELOS - CUERNAVACA (MEXICO)        *
 * (4) UNIVERSITE' DE LORRAINE - NANCY (FRANCE)                                *
 * (5) UNIVERSITAET STUTTGART- STUTTGART (GERMANY)                             *
 * (6) IMPERIAL COLLEGE - LONDON (UK)                                          *
 * (7) OXFORD E-RESEARCH CENTRE - OXFORD (UK)                                  *
 * (8) UPMC - SORBONNE UNIVERSITES - PARIS (FRANCE)                            *
 * (9) UNIVERSIDAD DE BARCELONA - BARCELONA (SPAIN)                            *
 *(10) UNIVERSITA' DI NAPOLI "FEDERICO II" - NAPOLI (ITALY)                    *
 *(11) NIS - NANOSTRUCTURED INTERFACES AND SURFACES - TORINO (ITALY)           *
 *(12) MPI FUER CHEMISCHE ENERGIEKONVERSION - MUELHEIM AN DER RUHR (GERMANY)   *
 *(13) UNIVERSITY OF TROMSO - TROMSO (NORWAY)                                  *
 *(14) UNIVERSITE' DE PAU ET DES PAYS DE L'ADOUR - PAU (FRANCE)                *
 *(15) UNIVERSITY OF CALIFORNIA SANTA BARBARA - SANTA BARBARA (USA)            *
 *(16) CURTIN UNIVERSITY - PERTH (AUSTRALIA)                                   *
 *(17) UNIVERSITY COLLEGE LONDON - LONDON (UK)                                 *
 *(18) CAMBRIDGE UNIVERSITY - CAMBRIDGE (UK)                                   *
 *                                                                             *
 *******************************************************************************
 EEEEEEEEEE STARTING  DATE 05 03 2022 TIME 00:50:38.9
 F1 vol step3 freq - PBEh-3c                                                     

 GEOMETRY INPUT FROM EXTERNAL FILE (FORTRAN UNIT 34)
 3D - CRYSTAL 

 *******************************************************************************
 LATTICE PARAMETERS  (ANGSTROMS AND DEGREES) - PRIMITIVE CELL
       A          B          C        ALPHA      BETA     GAMMA        VOLUME
    7.19648    9.36417   12.75043    90.00000 116.61385  90.00000    768.199180

 NUMBER OF IRREDUCIBLE ATOMS IN THE CELL:   20

 CARTESIAN COORDINATES (ANGSTROM) - IRREDUCIBLE ATOMS AND SYMMETRY RELATED

 AT.IRR.  AT  AT.N.          X                   Y                   Z
     1     1     8    2.775324110177E+00 -6.836186460620E-01  2.421365557206E+00
     1     2     8    1.579618278680E+00  3.998468351064E+00  3.267369178222E+00
     1     3     8   -2.775324110177E+00  6.836186460620E-01 -2.421365557206E+00
     1     4     8   -1.579618278680E+00 -3.998468351064E+00 -3.267369178222E+00
     5     5     8    7.802206139670E-01  4.695687306301E+00 -2.259389584921E+00
     5     6     8    2.061289243580E+00  1.360030917500E-02 -3.447550111223E+00
     5     7     8   -7.802206139670E-01 -4.695687306301E+00  2.259389584921E+00
     5     8     8   -2.061289243580E+00 -1.360030917500E-02  3.447550111223E+00
     9     9     7    2.963033335748E+00 -4.266869980902E+00 -1.823860479500E+00
     9    10     7   -1.215234782000E-01  4.152170162240E-01 -3.883079216643E+00
     9    11     7   -2.963033335748E+00  4.266869980902E+00  1.823860479500E+00
     9    12     7    1.215234782000E-01 -4.152170162240E-01  3.883079216643E+00
    13    13     6    2.867947152545E+00 -3.388097570878E+00 -7.293376485030E-01
    13    14     6   -2.643729499800E-02  1.293989426248E+00 -4.977602047640E+00
    13    15     6   -2.867947152545E+00  3.388097570878E+00  7.293376485030E-01
    13    16     6    2.643729499800E-02 -1.293989426248E+00  4.977602047640E+00
    17    17     6    1.802425697345E+00 -3.362039532945E+00  1.644301503820E-01
    17    18     6    1.039084160203E+00  1.320047464181E+00 -5.871369846525E+00
    17    19     6   -1.802425697345E+00  3.362039532945E+00 -1.644301503820E-01
    17    20     6   -1.039084160203E+00 -1.320047464181E+00  5.871369846525E+00
    21    21     6    1.791804708474E+00 -2.455640044986E+00  1.214347810503E+00
    21    22     6    2.563137680382E+00  2.226446952140E+00  4.474386924925E+00
    21    23     6   -1.791804708474E+00  2.455640044986E+00 -1.214347810503E+00
    21    24     6   -2.563137680382E+00 -2.226446952140E+00 -4.474386924925E+00
    25    25     6    2.845108392948E+00 -1.565904413792E+00  1.404061087056E+00
    25    26     6    1.509833995909E+00  3.116182583335E+00  4.284673648372E+00
    25    27     6   -2.845108392948E+00  1.565904413792E+00 -1.404061087056E+00
    25    28     6   -1.509833995909E+00 -3.116182583335E+00 -4.284673648372E+00
    29    29     6   -3.271566579931E+00 -1.613699679066E+00  5.447818766810E-01
    29    30     6    4.300567223830E-01  3.068387318061E+00  5.162157819462E+00
    29    31     6    3.271566579931E+00  1.613699679066E+00 -5.447818766810E-01
    29    32     6   -4.300567223830E-01 -3.068387318061E+00 -5.162157819462E+00
    33    33     6   -3.267008361979E+00 -2.511391759671E+00 -5.071021937590E-01
    33    34     6   -1.087934026878E+00  2.170695237456E+00 -5.181632541669E+00
    33    35     6    3.267008361979E+00  2.511391759671E+00  5.071021937590E-01
    33    36     6    1.087934026878E+00 -2.170695237456E+00  5.181632541669E+00
    37    37     6    1.971310388007E+00  4.543026551533E+00 -2.534808022465E+00
    37    38     6    8.701994695410E-01 -1.390604455930E-01 -3.172131673679E+00
    37    39     6   -1.971310388007E+00 -4.543026551533E+00  2.534808022465E+00
    37    40     6   -8.701994695410E-01  1.390604455930E-01  3.172131673679E+00
    41    41     6    2.410724063039E+00  3.700375475049E+00 -3.699200985304E+00
    41    42     6    4.307857945080E-01 -9.817115220770E-01 -2.007738710839E+00
    41    43     6   -2.410724063039E+00 -3.700375475049E+00  3.699200985304E+00
    41    44     6   -4.307857945080E-01  9.817115220770E-01  2.007738710839E+00
    45    45     1    9.732989518410E-01 -4.042686700794E+00  6.303617917300E-02
    45    46     1    1.868210905706E+00  6.394002963320E-01 -5.769975875317E+00
    45    47     1   -9.732989518410E-01  4.042686700794E+00 -6.303617917300E-02
    45    48     1   -1.868210905706E+00 -6.394002963320E-01  5.769975875317E+00
    49    49     1    9.501151032950E-01 -2.453697667874E+00  1.895666092314E+00
    49    50     1    3.404827285562E+00  2.228389329252E+00  3.793068643114E+00
    49    51     1   -9.501151032950E-01  2.453697667874E+00 -1.895666092314E+00
    49    52     1   -3.404827285562E+00 -2.228389329252E+00 -3.793068643114E+00
    53    53     1   -2.436824797399E+00 -9.357483879830E-01  6.639038523730E-01
    53    54     1   -4.046850601480E-01  3.746338609144E+00  5.043035843770E+00
    53    55     1    2.436824797399E+00  9.357483879830E-01 -6.639038523730E-01
    53    56     1    4.046850601480E-01 -3.746338609144E+00 -5.043035843770E+00
    57    57     1   -2.417599113859E+00 -2.529964542546E+00 -1.178403665605E+00
    57    58     1   -1.937343274997E+00  2.152122454580E+00 -4.510331069823E+00
    57    59     1    2.417599113859E+00  2.529964542546E+00  1.178403665605E+00
    57    60     1    1.937343274997E+00 -2.152122454580E+00  4.510331069823E+00
    61    61     1   -3.540310734685E+00 -3.164098710110E-01  2.677766528956E+00
    61    62     1    6.988008771370E-01  4.365677126115E+00  3.029173167188E+00
    61    63     1    3.540310734685E+00  3.164098710110E-01 -2.677766528956E+00
    61    64     1   -6.988008771370E-01 -4.365677126115E+00 -3.029173167188E+00
    65    65     1   -3.293796532380E+00 -4.410865916833E+00 -2.155835570118E+00
    65    66     1   -1.061145856476E+00  2.712210802930E-01 -3.532899165310E+00
    65    67     1    3.293796532380E+00  4.410865916833E+00  2.155835570118E+00
    65    68     1    1.061145856476E+00 -2.712210802930E-01  3.532899165310E+00
    69    69     1    1.770880255016E+00  3.883869887738E+00 -4.560917298699E+00
    69    70     1    1.070629602532E+00 -7.982171093880E-01 -1.146022397444E+00
    69    71     1   -1.770880255016E+00 -3.883869887738E+00  4.560917298699E+00
    69    72     1   -1.070629602532E+00  7.982171093880E-01  1.146022397444E+00
    73    73     1    3.447868145289E+00  3.867816339494E+00 -3.983195369981E+00
    73    74     1   -6.063582877420E-01 -8.142706576330E-01 -1.723744326162E+00
    73    75     1   -3.447868145289E+00 -3.867816339494E+00  3.983195369981E+00
    73    76     1    6.063582877420E-01  8.142706576330E-01  1.723744326162E+00
    77    77     1    2.295058040179E+00  2.645515060713E+00 -3.452566729214E+00
    77    78     1    5.464518173690E-01 -2.036571936414E+00 -2.254372966929E+00
    77    79     1   -2.295058040179E+00 -2.645515060713E+00  3.452566729214E+00
    77    80     1   -5.464518173690E-01  2.036571936414E+00  2.254372966929E+00

 SPACE  GROUP  N.                     :   14
 NUMBER OF SYMMETRY OPERATORS         :    4
 *******************************************************************************
 LATTICE PARAMETERS (ANGSTROMS AND DEGREES) - BOHR = 0.5291772083 ANGSTROM
 PRIMITIVE CELL - CENTRING CODE 1/0 VOLUME=   768.199180 - DENSITY  1.306 g/cm^3
         A              B              C           ALPHA      BETA       GAMMA 
     7.19647527     9.36417399    12.75042571    90.000000 116.613853  90.000000
 *******************************************************************************
 ATOMS IN THE ASYMMETRIC UNIT   20 - ATOMS IN THE UNIT CELL:   80
     ATOM                 X/A                 Y/B                 Z/C    
 *******************************************************************************
      1 T   8 O    -4.461225000491E-01 -7.300362493070E-02  2.130256323695E-01
      2 F   8 O     4.461225000489E-01  4.269963750694E-01  2.869743676299E-01
      3 F   8 O     4.461225000491E-01  7.300362493070E-02 -2.130256323695E-01
      4 F   8 O    -4.461225000489E-01 -4.269963750694E-01 -2.869743676299E-01
      5 T   8 O    -4.796446173378E-02 -4.985476231877E-01 -1.980275678738E-01
      6 F   8 O     4.796446173447E-02  1.452376812237E-03 -3.019724321256E-01
      7 F   8 O     4.796446173378E-02  4.985476231877E-01  1.980275678738E-01
      8 F   8 O    -4.796446173447E-02 -1.452376812237E-03  3.019724321256E-01
      9 T   7 N     2.859071153663E-01 -4.556589810828E-01 -1.593371972130E-01
     10 F   7 N    -2.859071153654E-01  4.434101891731E-02 -3.406628027864E-01
     11 F   7 N    -2.859071153663E-01  4.556589810828E-01  1.593371972130E-01
     12 F   7 N     2.859071153654E-01 -4.434101891731E-02  3.406628027864E-01
     13 T   6 C     3.485002930511E-01 -3.618148886339E-01 -6.334333748493E-02
     14 F   6 C    -3.485002930503E-01  1.381851113662E-01 -4.366566625145E-01
     15 F   6 C    -3.485002930511E-01  3.618148886339E-01  6.334333748493E-02
     16 F   6 C     3.485002930503E-01 -1.381851113662E-01  4.366566625145E-01
     17 T   6 C     2.621670346718E-01 -3.590321511550E-01  1.482431039732E-02
     18 F   6 C    -2.621670346709E-01  1.409678488451E-01  4.851756896033E-01
     19 F   6 C    -2.621670346718E-01  3.590321511550E-01 -1.482431039732E-02
     20 F   6 C     2.621670346709E-01 -1.409678488451E-01 -4.851756896033E-01
     21 T   6 C     3.334220639673E-01 -2.622377634689E-01  1.069240092814E-01
     22 F   6 C    -3.334220639676E-01  2.377622365312E-01  3.930759907180E-01
     23 F   6 C    -3.334220639673E-01  2.622377634689E-01 -1.069240092814E-01
     24 F   6 C     3.334220639676E-01 -2.377622365312E-01 -3.930759907180E-01
     25 T   6 C     4.931132835249E-01 -1.672229087962E-01  1.237999935380E-01
     26 F   6 C    -4.931132835251E-01  3.327770912040E-01  3.762000064614E-01
     27 F   6 C    -4.931132835249E-01  1.672229087962E-01 -1.237999935380E-01
     28 F   6 C     4.931132835251E-01 -3.327770912040E-01 -3.762000064614E-01
     29 T   6 C    -4.174419651588E-01 -1.723269644559E-01  4.706395990716E-02
     30 F   6 C     4.174419651579E-01  3.276730355443E-01  4.529360400922E-01
     31 F   6 C     4.174419651588E-01  1.723269644559E-01 -4.706395990716E-02
     32 F   6 C    -4.174419651579E-01 -3.276730355443E-01 -4.529360400922E-01
     33 T   6 C    -4.896767460925E-01 -2.681914882416E-01 -4.520958404668E-02
     34 F   6 C     4.896767460927E-01  2.318085117586E-01 -4.547904159527E-01
     35 F   6 C     4.896767460925E-01  2.681914882416E-01  4.520958404668E-02
     36 F   6 C    -4.896767460927E-01 -2.318085117586E-01  4.547904159527E-01
     37 T   6 C     9.867542463819E-02  4.851497371068E-01 -2.219238133833E-01
     38 F   6 C    -9.867542463735E-02 -1.485026289328E-02 -2.780761866162E-01
     39 F   6 C    -9.867542463819E-02 -4.851497371068E-01  2.219238133833E-01
     40 F   6 C     9.867542463735E-02  1.485026289328E-02  2.780761866162E-01
     41 T   6 C     7.914919363088E-02  3.951630413234E-01 -3.239704880567E-01
     42 F   6 C    -7.914919363011E-02 -1.048369586767E-01 -1.760295119427E-01
     43 F   6 C    -7.914919363088E-02 -3.951630413234E-01  3.239704880567E-01
     44 F   6 C     7.914919363011E-02  1.048369586767E-01  1.760295119427E-01
     45 T   1 H     1.397844319019E-01 -4.317184519720E-01  5.745719488558E-03
     46 F   1 H    -1.397844319012E-01  6.828154802811E-02  4.942542805120E-01
     47 F   1 H    -1.397844319019E-01  4.317184519720E-01 -5.745719488558E-03
     48 F   1 H     1.397844319012E-01 -6.828154802811E-02 -4.942542805120E-01
     49 T   1 H     2.635137323740E-01 -2.620303370464E-01  1.665045935865E-01
     50 F   1 H    -2.635137323742E-01  2.379696629538E-01  3.334954064130E-01
     51 F   1 H    -2.635137323740E-01  2.620303370464E-01 -1.665045935865E-01
     52 F   1 H     2.635137323742E-01 -2.379696629538E-01 -3.334954064130E-01
     53 T   1 H    -2.930500250623E-01 -9.992855627817E-02  5.769895278755E-02
     54 F   1 H     2.930500250616E-01  4.000714437220E-01  4.423010472118E-01
     55 F   1 H     2.930500250623E-01  9.992855627817E-02 -5.769895278755E-02
     56 F   1 H    -2.930500250616E-01 -4.000714437220E-01 -4.423010472118E-01
     57 T   1 H    -4.180004487354E-01 -2.701748754454E-01 -1.039097494015E-01
     58 F   1 H     4.180004487357E-01  2.298251245547E-01 -3.960902505979E-01
     59 F   1 H     4.180004487354E-01  2.701748754454E-01  1.039097494015E-01
     60 F   1 H    -4.180004487357E-01 -2.298251245547E-01  3.960902505979E-01
     61 T   1 H    -3.070711182584E-01 -3.378940536616E-02  2.341163963160E-01
     62 F   1 H     3.070711182575E-01  4.662105946339E-01  2.658836036834E-01
     63 F   1 H     3.070711182584E-01  3.378940536616E-02 -2.341163963160E-01
     64 F   1 H    -3.070711182575E-01 -4.662105946339E-01 -2.658836036834E-01
     65 T   1 H     3.923805979482E-01 -4.710363049150E-01 -1.898475691730E-01
     66 F   1 H    -3.923805979478E-01  2.896369508507E-02 -3.101524308264E-01
     67 F   1 H    -3.923805979482E-01  4.710363049150E-01  1.898475691730E-01
     68 F   1 H     3.923805979478E-01 -2.896369508507E-02  3.101524308264E-01
     69 T   1 H    -6.956910076518E-02  4.147584068945E-01 -3.997049245608E-01
     70 F   1 H     6.956910076609E-02 -8.524159310561E-02 -1.002950754386E-01
     71 F   1 H     6.956910076518E-02 -4.147584068945E-01  3.997049245608E-01
     72 F   1 H    -6.956910076609E-02  8.524159310561E-02  1.002950754386E-01
     73 T   1 H     2.037761186026E-01  4.130440487190E-01 -3.486532051873E-01
     74 F   1 H    -2.037761186018E-01 -8.695595128123E-02 -1.513467948120E-01
     75 F   1 H    -2.037761186026E-01 -4.130440487190E-01  3.486532051873E-01
     76 F   1 H     2.037761186018E-01  8.695595128123E-02  1.513467948120E-01
     77 T   1 H     8.014179841495E-02  2.825145135425E-01 -3.023606288718E-01
     78 F   1 H    -8.014179841405E-02 -2.174854864577E-01 -1.976393711276E-01
     79 F   1 H    -8.014179841495E-02 -2.825145135425E-01  3.023606288718E-01
     80 F   1 H     8.014179841405E-02  2.174854864577E-01  1.976393711276E-01

 T = ATOM BELONGING TO THE ASYMMETRIC UNIT
 *******************************************************************************
 * GEOMETRY EDITING - INPUT COORDINATES ARE GIVEN IN ANGSTROM         
 *******************************************************************************

 GEOMETRY NOW FULLY CONSISTENT WITH THE GROUP

 FRQFRQFRQFRQFRQFRQFRQFRQFRQFRQFRQFRQFRQFRQFRQFRQFRQFRQFRQFRQFRQFRQFRQFRQFRQFRQ

                       FREQUENCY CALCULATION

 INFORMATION **** INPFREQ ****  PRINTING OF EIGENVECTORS
 INFORMATION **** INPFREQ **** NEW DEFAULT - IMPOSING ECKART CONDITIONS TO THE HESSIAN

 GCALCO - MAX INDICES DIRECT LATTICE VECTOR    20    14    11
 NO.OF VECTORS CREATED 6999 STARS 1868 RMAX   205.27319 BOHR

 GEOMETRY FOR WAVE FUNCTION - DIMENSIONALITY OF THE SYSTEM    3
 (NON PERIODIC DIRECTION: LATTICE PARAMETER FORMALLY SET TO 500)
 *******************************************************************************
 LATTICE PARAMETERS (ANGSTROMS AND DEGREES) - BOHR = 0.5291772083 ANGSTROM
 PRIMITIVE CELL - CENTRING CODE 1/0 VOLUME=   768.199180 - DENSITY  1.306 g/cm^3
         A              B              C           ALPHA      BETA       GAMMA 
     7.19647527     9.36417399    12.75042571    90.000000 116.613853  90.000000
 *******************************************************************************
 ATOMS IN THE ASYMMETRIC UNIT   20 - ATOMS IN THE UNIT CELL:   80
     ATOM                 X/A                 Y/B                 Z/C    
 *******************************************************************************
      1 T   8 O    -4.461225000491E-01 -7.300362493070E-02  2.130256323695E-01
      2 F   8 O     4.461225000477E-01  4.269963750698E-01  2.869743676296E-01
      3 F   8 O     4.461225000491E-01  7.300362493070E-02 -2.130256323695E-01
      4 F   8 O    -4.461225000505E-01 -4.269963750688E-01 -2.869743676314E-01
      5 T   8 O    -4.796446173378E-02 -4.985476231877E-01 -1.980275678738E-01
      6 F   8 O     4.796446173239E-02  1.452376812878E-03 -3.019724321270E-01
      7 F   8 O     4.796446173378E-02  4.985476231877E-01  1.980275678738E-01
      8 F   8 O    -4.796446173516E-02 -1.452376811810E-03  3.019724321253E-01
      9 T   7 N     2.859071153663E-01 -4.556589810828E-01 -1.593371972130E-01
     10 F   7 N    -2.859071153676E-01  4.434101891773E-02 -3.406628027879E-01
     11 F   7 N    -2.859071153663E-01  4.556589810828E-01  1.593371972130E-01
     12 F   7 N     2.859071153649E-01 -4.434101891667E-02  3.406628027861E-01
     13 T   6 C     3.485002930511E-01 -3.618148886339E-01 -6.334333748493E-02
     14 F   6 C    -3.485002930525E-01  1.381851113666E-01 -4.366566625159E-01
     15 F   6 C    -3.485002930511E-01  3.618148886339E-01  6.334333748493E-02
     16 F   6 C     3.485002930497E-01 -1.381851113656E-01  4.366566625142E-01
     17 T   6 C     2.621670346718E-01 -3.590321511550E-01  1.482431039732E-02
     18 F   6 C    -2.621670346731E-01  1.409678488456E-01  4.851756896018E-01
     19 F   6 C    -2.621670346718E-01  3.590321511550E-01 -1.482431039732E-02
     20 F   6 C     2.621670346704E-01 -1.409678488445E-01 -4.851756896036E-01
     21 T   6 C     3.334220639673E-01 -2.622377634689E-01  1.069240092814E-01
     22 F   6 C    -3.334220639687E-01  2.377622365316E-01  3.930759907177E-01
     23 F   6 C    -3.334220639673E-01  2.622377634689E-01 -1.069240092814E-01
     24 F   6 C     3.334220639659E-01 -2.377622365305E-01 -3.930759907195E-01
     25 T   6 C     4.931132835249E-01 -1.672229087962E-01  1.237999935380E-01
     26 F   6 C    -4.931132835263E-01  3.327770912044E-01  3.762000064611E-01
     27 F   6 C    -4.931132835249E-01  1.672229087962E-01 -1.237999935380E-01
     28 F   6 C     4.931132835235E-01 -3.327770912033E-01 -3.762000064628E-01
     29 T   6 C    -4.174419651588E-01 -1.723269644559E-01  4.706395990716E-02
     30 F   6 C     4.174419651574E-01  3.276730355446E-01  4.529360400920E-01
     31 F   6 C     4.174419651588E-01  1.723269644559E-01 -4.706395990716E-02
     32 F   6 C    -4.174419651602E-01 -3.276730355436E-01 -4.529360400937E-01
     33 T   6 C    -4.896767460925E-01 -2.681914882416E-01 -4.520958404668E-02
     34 F   6 C     4.896767460911E-01  2.318085117590E-01 -4.547904159542E-01
     35 F   6 C     4.896767460925E-01  2.681914882416E-01  4.520958404668E-02
     36 F   6 C    -4.896767460939E-01 -2.318085117579E-01  4.547904159524E-01
     37 T   6 C     9.867542463819E-02  4.851497371068E-01 -2.219238133833E-01
     38 F   6 C    -9.867542463957E-02 -1.485026289264E-02 -2.780761866176E-01
     39 F   6 C    -9.867542463819E-02 -4.851497371068E-01  2.219238133833E-01
     40 F   6 C     9.867542463680E-02  1.485026289370E-02  2.780761866159E-01
     41 T   6 C     7.914919363088E-02  3.951630413234E-01 -3.239704880567E-01
     42 F   6 C    -7.914919363226E-02 -1.048369586761E-01 -1.760295119442E-01
     43 F   6 C    -7.914919363088E-02 -3.951630413234E-01  3.239704880567E-01
     44 F   6 C     7.914919362949E-02  1.048369586772E-01  1.760295119425E-01
     45 T   1 H     1.397844319019E-01 -4.317184519720E-01  5.745719488558E-03
     46 F   1 H    -1.397844319032E-01  6.828154802854E-02  4.942542805106E-01
     47 F   1 H    -1.397844319019E-01  4.317184519720E-01 -5.745719488558E-03
     48 F   1 H     1.397844319005E-01 -6.828154802747E-02 -4.942542805123E-01
     49 T   1 H     2.635137323740E-01 -2.620303370464E-01  1.665045935865E-01
     50 F   1 H    -2.635137323754E-01  2.379696629542E-01  3.334954064127E-01
     51 F   1 H    -2.635137323740E-01  2.620303370464E-01 -1.665045935865E-01
     52 F   1 H     2.635137323726E-01 -2.379696629531E-01 -3.334954064144E-01
     53 T   1 H    -2.930500250623E-01 -9.992855627817E-02  5.769895278755E-02
     54 F   1 H     2.930500250609E-01  4.000714437224E-01  4.423010472116E-01
     55 F   1 H     2.930500250623E-01  9.992855627817E-02 -5.769895278755E-02
     56 F   1 H    -2.930500250637E-01 -4.000714437213E-01 -4.423010472133E-01
     57 T   1 H    -4.180004487354E-01 -2.701748754454E-01 -1.039097494015E-01
     58 F   1 H     4.180004487340E-01  2.298251245551E-01 -3.960902505993E-01
     59 F   1 H     4.180004487354E-01  2.701748754454E-01  1.039097494015E-01
     60 F   1 H    -4.180004487368E-01 -2.298251245540E-01  3.960902505976E-01
     61 T   1 H    -3.070711182584E-01 -3.378940536616E-02  2.341163963161E-01
     62 F   1 H     3.070711182570E-01  4.662105946344E-01  2.658836036831E-01
     63 F   1 H     3.070711182584E-01  3.378940536616E-02 -2.341163963161E-01
     64 F   1 H    -3.070711182598E-01 -4.662105946333E-01 -2.658836036848E-01
     65 T   1 H     3.923805979482E-01 -4.710363049150E-01 -1.898475691730E-01
     66 F   1 H    -3.923805979495E-01  2.896369508550E-02 -3.101524308279E-01
     67 F   1 H    -3.923805979482E-01  4.710363049150E-01  1.898475691730E-01
     68 F   1 H     3.923805979468E-01 -2.896369508443E-02  3.101524308261E-01
     69 T   1 H    -6.956910076518E-02  4.147584068945E-01 -3.997049245608E-01
     70 F   1 H     6.956910076379E-02 -8.524159310497E-02 -1.002950754401E-01
     71 F   1 H     6.956910076518E-02 -4.147584068945E-01  3.997049245608E-01
     72 F   1 H    -6.956910076657E-02  8.524159310604E-02  1.002950754383E-01
     73 T   1 H     2.037761186026E-01  4.130440487190E-01 -3.486532051873E-01
     74 F   1 H    -2.037761186039E-01 -8.695595128049E-02 -1.513467948135E-01
     75 F   1 H    -2.037761186026E-01 -4.130440487190E-01  3.486532051873E-01
     76 F   1 H     2.037761186012E-01  8.695595128155E-02  1.513467948118E-01
     77 T   1 H     8.014179841495E-02  2.825145135425E-01 -3.023606288718E-01
     78 F   1 H    -8.014179841634E-02 -2.174854864570E-01 -1.976393711291E-01
     79 F   1 H    -8.014179841495E-02 -2.825145135425E-01  3.023606288718E-01
     80 F   1 H     8.014179841356E-02  2.174854864580E-01  1.976393711274E-01

 T = ATOM BELONGING TO THE ASYMMETRIC UNIT

 ****    4 SYMMOPS - TRANSLATORS IN FRACTIONAL UNITS
 **** MATRICES AND TRANSLATORS IN THE CRYSTALLOGRAPHIC REFERENCE FRAME
   V INV                    ROTATION MATRICES                   TRANSLATORS
   1   1  1.00  0.00  0.00  0.00  1.00  0.00  0.00  0.00  1.00  0.00  0.00  0.00
   2   2 -1.00  0.00 -0.00  0.00  1.00  0.00  0.00  0.00 -1.00 -0.00  0.50  0.50
   3   3 -1.00 -0.00 -0.00 -0.00 -1.00  0.00  0.00  0.00 -1.00  0.00  0.00  0.00
   4   4  1.00 -0.00  0.00 -0.00 -1.00 -0.00 -0.00 -0.00  1.00 -0.00  0.50  0.50

 DIRECT LATTICE VECTORS CARTESIAN COMPONENTS (ANGSTROM)
          X                    Y                    Z
   0.719645224640E+01   0.441176889921E-15  -0.182049607153E-01
  -0.205691185363E-17   0.936417399425E+01  -0.144555959949E-17
  -0.568301971509E+01   0.782688480616E-15   0.114138793923E+02


 CARTESIAN COORDINATES - PRIMITIVE CELL
 *******************************************************************************
 *      ATOM          X(ANGSTROM)         Y(ANGSTROM)         Z(ANGSTROM)
 *******************************************************************************
    1     8 O     2.775324110177E+00 -6.836186460620E-01  2.421365557206E+00
    2     8 O     1.579618278673E+00  3.998468351068E+00  3.267369178219E+00
    3     8 O    -2.775324110177E+00  6.836186460620E-01 -2.421365557206E+00
    4     8 O    -1.579618278683E+00 -3.998468351058E+00 -3.267369178239E+00
    5     8 O     7.802206139670E-01  4.695687306301E+00 -2.259389584921E+00
    6     8 O     2.061289243573E+00  1.360030918100E-02 -3.447550111239E+00
    7     8 O    -7.802206139670E-01 -4.695687306301E+00  2.259389584921E+00
    8     8 O    -2.061289243583E+00 -1.360030917100E-02  3.447550111219E+00
    9     7 N     2.963033335748E+00 -4.266869980902E+00 -1.823860479500E+00
   10     7 N    -1.215234782080E-01  4.152170162280E-01 -3.883079216660E+00
   11     7 N    -2.963033335748E+00  4.266869980902E+00  1.823860479500E+00
   12     7 N     1.215234781980E-01 -4.152170162180E-01  3.883079216640E+00
   13     6 C     2.867947152545E+00 -3.388097570878E+00 -7.293376485030E-01
   14     6 C    -2.643729500500E-02  1.293989426252E+00 -4.977602047657E+00
   15     6 C    -2.867947152545E+00  3.388097570878E+00  7.293376485030E-01
   16     6 C     2.643729499500E-02 -1.293989426242E+00  4.977602047637E+00
   17     6 C     1.802425697345E+00 -3.362039532945E+00  1.644301503820E-01
   18     6 C     1.039084160195E+00  1.320047464185E+00 -5.871369846542E+00
   19     6 C    -1.802425697345E+00  3.362039532945E+00 -1.644301503820E-01
   20     6 C    -1.039084160205E+00 -1.320047464175E+00  5.871369846522E+00
   21     6 C     1.791804708474E+00 -2.455640044986E+00  1.214347810503E+00
   22     6 C     2.563137680376E+00  2.226446952144E+00  4.474386924922E+00
   23     6 C    -1.791804708474E+00  2.455640044986E+00 -1.214347810503E+00
   24     6 C    -2.563137680386E+00 -2.226446952134E+00 -4.474386924942E+00
   25     6 C     2.845108392948E+00 -1.565904413792E+00  1.404061087056E+00
   26     6 C     1.509833995902E+00  3.116182583338E+00  4.284673648369E+00
   27     6 C    -2.845108392948E+00  1.565904413792E+00 -1.404061087056E+00
   28     6 C    -1.509833995912E+00 -3.116182583328E+00 -4.284673648389E+00
   29     6 C    -3.271566579931E+00 -1.613699679066E+00  5.447818766810E-01
   30     6 C     4.300567223810E-01  3.068387318064E+00  5.162157819459E+00
   31     6 C     3.271566579931E+00  1.613699679066E+00 -5.447818766810E-01
   32     6 C    -4.300567223910E-01 -3.068387318054E+00 -5.162157819479E+00
   33     6 C    -3.267008361979E+00 -2.511391759671E+00 -5.071021937590E-01
   34     6 C    -1.087934026881E+00  2.170695237459E+00 -5.181632541686E+00
   35     6 C     3.267008361979E+00  2.511391759671E+00  5.071021937590E-01
   36     6 C     1.087934026871E+00 -2.170695237449E+00  5.181632541666E+00
   37     6 C     1.971310388007E+00  4.543026551533E+00 -2.534808022465E+00
   38     6 C     8.701994695330E-01 -1.390604455870E-01 -3.172131673695E+00
   39     6 C    -1.971310388007E+00 -4.543026551533E+00  2.534808022465E+00
   40     6 C    -8.701994695430E-01  1.390604455970E-01  3.172131673675E+00
   41     6 C     2.410724063039E+00  3.700375475049E+00 -3.699200985304E+00
   42     6 C     4.307857945010E-01 -9.817115220710E-01 -2.007738710856E+00
   43     6 C    -2.410724063039E+00 -3.700375475049E+00  3.699200985304E+00
   44     6 C    -4.307857945110E-01  9.817115220810E-01  2.007738710836E+00
   45     1 H     9.732989518410E-01 -4.042686700794E+00  6.303617917300E-02
   46     1 H     1.868210905699E+00  6.394002963360E-01 -5.769975875333E+00
   47     1 H    -9.732989518410E-01  4.042686700794E+00 -6.303617917300E-02
   48     1 H    -1.868210905709E+00 -6.394002963260E-01  5.769975875313E+00
   49     1 H     9.501151032950E-01 -2.453697667874E+00  1.895666092314E+00
   50     1 H     3.404827285555E+00  2.228389329256E+00  3.793068643111E+00
   51     1 H    -9.501151032950E-01  2.453697667874E+00 -1.895666092314E+00
   52     1 H    -3.404827285565E+00 -2.228389329246E+00 -3.793068643131E+00
   53     1 H    -2.436824797399E+00 -9.357483879830E-01  6.639038523730E-01
   54     1 H    -4.046850601510E-01  3.746338609147E+00  5.043035843767E+00
   55     1 H     2.436824797399E+00  9.357483879830E-01 -6.639038523730E-01
   56     1 H     4.046850601410E-01 -3.746338609137E+00 -5.043035843787E+00
   57     1 H    -2.417599113859E+00 -2.529964542546E+00 -1.178403665605E+00
   58     1 H    -1.937343275001E+00  2.152122454584E+00 -4.510331069840E+00
   59     1 H     2.417599113859E+00  2.529964542546E+00  1.178403665605E+00
   60     1 H     1.937343274991E+00 -2.152122454574E+00  4.510331069820E+00
   61     1 H    -3.540310734685E+00 -3.164098710110E-01  2.677766528956E+00
   62     1 H     6.988008771350E-01  4.365677126119E+00  3.029173167184E+00
   63     1 H     3.540310734685E+00  3.164098710110E-01 -2.677766528956E+00
   64     1 H    -6.988008771450E-01 -4.365677126109E+00 -3.029173167204E+00
   65     1 H    -3.293796532380E+00 -4.410865916833E+00 -2.155835570118E+00
   66     1 H    -1.061145856480E+00  2.712210802970E-01 -3.532899165327E+00
   67     1 H     3.293796532380E+00  4.410865916833E+00  2.155835570118E+00
   68     1 H     1.061145856470E+00 -2.712210802870E-01  3.532899165307E+00
   69     1 H     1.770880255016E+00  3.883869887738E+00 -4.560917298699E+00
   70     1 H     1.070629602524E+00 -7.982171093820E-01 -1.146022397461E+00
   71     1 H    -1.770880255016E+00 -3.883869887738E+00  4.560917298699E+00
   72     1 H    -1.070629602534E+00  7.982171093920E-01  1.146022397441E+00
   73     1 H     3.447868145289E+00  3.867816339494E+00 -3.983195369981E+00
   74     1 H    -6.063582877490E-01 -8.142706576260E-01 -1.723744326179E+00
   75     1 H    -3.447868145289E+00 -3.867816339494E+00  3.983195369981E+00
   76     1 H     6.063582877390E-01  8.142706576360E-01  1.723744326159E+00
   77     1 H     2.295058040179E+00  2.645515060713E+00 -3.452566729214E+00
   78     1 H     5.464518173610E-01 -2.036571936407E+00 -2.254372966946E+00
   79     1 H    -2.295058040179E+00 -2.645515060713E+00  3.452566729214E+00
   80     1 H    -5.464518173710E-01  2.036571936417E+00  2.254372966926E+00

 *******************************************************************************
 STARTING BASIS SET HANDLING 
 *******************************************************************************

 Loading internal basis set: DEF2-MSVP           

 Please cite in your publication:
 Fully Optimized Contracted Gaussian Basis Sets for Atoms Li to Kr. A. Schäfer, H. Horn and R. Ahlrichs; J. Chem. Phys. 97, 2571 (1992).                                                                                                                         
 S. Grimme, J. G. Brandenburg, C. Bannwarth, and A. Hansen, J. Chem. Phys., 143, 054107 (2015).                                                                                                                                                                  

 *******************************************************************************
 LOCAL ATOMIC FUNCTIONS BASIS SET
 *******************************************************************************
   ATOM   X(AU)   Y(AU)   Z(AU)  N. TYPE  EXPONENT  S COEF   P COEF   D/F/G COEF
 *******************************************************************************
   1 O    5.245  -1.292   4.576
                                  1 S  
                                         6.773E+03 1.727E-03 0.000E+00 0.000E+00
                                         1.017E+03 1.325E-02 0.000E+00 0.000E+00
                                         2.313E+02 6.603E-02 0.000E+00 0.000E+00
                                         6.501E+01 2.353E-01 0.000E+00 0.000E+00
                                         2.050E+01 5.498E-01 0.000E+00 0.000E+00
                                  2 S  
                                         6.716E+00 1.000E+00 0.000E+00 0.000E+00
                                  3 S  
                                         1.147E+00 1.000E+00 0.000E+00 0.000E+00
                                  4 S  
                                         3.342E-01 1.000E+00 0.000E+00 0.000E+00
                           5-     7 P  
                                         1.769E+01 0.000E+00 4.359E-02 0.000E+00
                                         3.854E+00 0.000E+00 2.318E-01 0.000E+00
                                         1.047E+00 0.000E+00 5.146E-01 0.000E+00
                           8-    10 P  
                                         2.759E-01 0.000E+00 1.000E+00 0.000E+00
                          11-    15 D  
                                         8.000E-01 0.000E+00 0.000E+00 1.000E+00
   2 O    2.985   7.556   6.174
   3 O   -5.245   1.292  -4.576
   4 O   -2.985  -7.556  -6.174
   5 O    1.474   8.874  -4.270
   6 O    3.895   0.026  -6.515
   7 O   -1.474  -8.874   4.270
   8 O   -3.895  -0.026   6.515
   9 N    5.599  -8.063  -3.447
                                121 S  
                                         5.072E+03 1.707E-03 0.000E+00 0.000E+00
                                         7.614E+02 1.309E-02 0.000E+00 0.000E+00
                                         1.732E+02 6.510E-02 0.000E+00 0.000E+00
                                         4.867E+01 2.305E-01 0.000E+00 0.000E+00
                                         1.533E+01 5.330E-01 0.000E+00 0.000E+00
                                122 S  
                                         5.019E+00 1.000E+00 0.000E+00 0.000E+00
                                123 S  
                                         8.355E-01 1.000E+00 0.000E+00 0.000E+00
                                124 S  
                                         2.463E-01 1.000E+00 0.000E+00 0.000E+00
                         125-   127 P  
                                         1.355E+01 0.000E+00 4.063E-02 0.000E+00
                                         2.918E+00 0.000E+00 2.209E-01 0.000E+00
                                         7.983E-01 0.000E+00 5.186E-01 0.000E+00
                         128-   130 P  
                                         2.190E-01 0.000E+00 1.000E+00 0.000E+00
                         131-   135 D  
                                         8.000E-01 0.000E+00 0.000E+00 1.000E+00
  10 N   -0.230   0.785  -7.338
  11 N   -5.599   8.063   3.447
  12 N    0.230  -0.785   7.338
  13 C    5.420  -6.403  -1.378
                                181 S  
                                         3.624E+03 1.634E-03 0.000E+00 0.000E+00
                                         5.440E+02 1.252E-02 0.000E+00 0.000E+00
                                         1.237E+02 6.211E-02 0.000E+00 0.000E+00
                                         3.476E+01 2.182E-01 0.000E+00 0.000E+00
                                         1.093E+01 4.980E-01 0.000E+00 0.000E+00
                                182 S  
                                         3.574E+00 1.000E+00 0.000E+00 0.000E+00
                                183 S  
                                         5.748E-01 1.000E+00 0.000E+00 0.000E+00
                                184 S  
                                         1.730E-01 1.000E+00 0.000E+00 0.000E+00
                         185-   187 P  
                                         9.443E+00 0.000E+00 3.790E-02 0.000E+00
                                         2.002E+00 0.000E+00 2.082E-01 0.000E+00
                                         5.463E-01 0.000E+00 5.047E-01 0.000E+00
                         188-   190 P  
                                         1.520E-01 0.000E+00 1.000E+00 0.000E+00
                         191-   195 D  
                                         8.000E-01 0.000E+00 0.000E+00 1.000E+00
  14 C   -0.050   2.445  -9.406
  15 C   -5.420   6.403   1.378
  16 C    0.050  -2.445   9.406
  17 C    3.406  -6.353   0.311
  18 C    1.964   2.495 -11.095
  19 C   -3.406   6.353  -0.311
  20 C   -1.964  -2.495  11.095
  21 C    3.386  -4.640   2.295
  22 C    4.844   4.207   8.455
  23 C   -3.386   4.640  -2.295
  24 C   -4.844  -4.207  -8.455
  25 C    5.376  -2.959   2.653
  26 C    2.853   5.889   8.097
  27 C   -5.376   2.959  -2.653
  28 C   -2.853  -5.889  -8.097
  29 C   -6.182  -3.049   1.029
  30 C    0.813   5.798   9.755
  31 C    6.182   3.049  -1.029
  32 C   -0.813  -5.798  -9.755
  33 C   -6.174  -4.746  -0.958
  34 C   -2.056   4.102  -9.792
  35 C    6.174   4.746   0.958
  36 C    2.056  -4.102   9.792
  37 C    3.725   8.585  -4.790
  38 C    1.644  -0.263  -5.994
  39 C   -3.725  -8.585   4.790
  40 C   -1.644   0.263   5.994
  41 C    4.556   6.993  -6.990
  42 C    0.814  -1.855  -3.794
  43 C   -4.556  -6.993   6.990
  44 C   -0.814   1.855   3.794
  45 H    1.839  -7.640   0.119
                                661 S  
                                         1.874E+01 1.968E-02 0.000E+00 0.000E+00
                                         2.826E+00 1.380E-01 0.000E+00 0.000E+00
                                         6.401E-01 4.783E-01 0.000E+00 0.000E+00
                                662 S  
                                         1.756E-01 1.000E+00 0.000E+00 0.000E+00
  46 H    3.530   1.208 -10.904
  47 H   -1.839   7.640  -0.119
  48 H   -3.530  -1.208  10.904
  49 H    1.795  -4.637   3.582
  50 H    6.434   4.211   7.168
  51 H   -1.795   4.637  -3.582
  52 H   -6.434  -4.211  -7.168
  53 H   -4.605  -1.768   1.255
  54 H   -0.765   7.080   9.530
  55 H    4.605   1.768  -1.255
  56 H    0.765  -7.080  -9.530
  57 H   -4.569  -4.781  -2.227
  58 H   -3.661   4.067  -8.523
  59 H    4.569   4.781   2.227
  60 H    3.661  -4.067   8.523
  61 H   -6.690  -0.598   5.060
  62 H    1.321   8.250   5.724
  63 H    6.690   0.598  -5.060
  64 H   -1.321  -8.250  -5.724
  65 H   -6.224  -8.335  -4.074
  66 H   -2.005   0.513  -6.676
  67 H    6.224   8.335   4.074
  68 H    2.005  -0.513   6.676
  69 H    3.346   7.339  -8.619
  70 H    2.023  -1.508  -2.166
  71 H   -3.346  -7.339   8.619
  72 H   -2.023   1.508   2.166
  73 H    6.516   7.309  -7.527
  74 H   -1.146  -1.539  -3.257
  75 H   -6.516  -7.309   7.527
  76 H    1.146   1.539   3.257
  77 H    4.337   4.999  -6.524
  78 H    1.033  -3.849  -4.260
  79 H   -4.337  -4.999   6.524
  80 H   -1.033   3.849   4.260

 *******************************************************************************
 FINISHED BASIS SET HANDLING 
 *******************************************************************************

 INFORMATION **** SET_MPP **** PCRYSTAL CALCULATION
 INFORMATION **** READM2 **** NEW DEFAULT: FOCK/KS MATRIX MIXING SET TO 30 %
 INFORMATION **** READM2 **** NEW DEFAULT: FULL DIRECT SCF MODE
 INFORMATION **** READM2 **** NEW DEFAULT: COULOMB BIPOLAR BUFFER SET TO 32 Mb
 INFORMATION **** READM2 **** NEW DEFAULT: EXCHANGE BIPOLAR BUFFER SET TO 32 Mb

 *******************************************************************************
 NEW DEFAULT: DFT INTEGRATION GRID INCREASED TO XLGRID
 NEW DEFAULT: DIIS ACCELERATOR ACTIVE
 USE KEYWORD NODIIS TO TURN IT OFF
 *******************************************************************************

 INFORMATION **** RDDFTP **** PBEh-3c calculation
 INFORMATION **** RDDFTP **** PBEh hybrid functional combined with D3 and gCP

PLEASE CITE:
(1) PBEh-3c Reference
 S. Grimme, J. G. Brandenburg, C. Bannwarth, and A. Hansen, 
 J. Chem. Phys. 143, 054107 (2015)
(2) DFT-D3 Reference
 S. Grimme, J. Antony, S. Ehrlich, and H. Krieg, J. Chem. Phys. 132, 154104 (2010)
(3) gCP Reference
 H. Kruse and S. Grimme J. Chem. Phys, 136, 154101 (2012)
 J. G. Brandenburg, M. Alessio, B. Civalleri, M. F. Peintinger
 T. Bredow, and S. Grimme, J. Phys. Chem. A, 117, 9282 (2013) 

 WARNING **** RDDFTP **** PBEh-3c has to be combined with def2-mSVP basis set
 WARNING **** RDDFTP **** Note: Harmonic frequencies are scaled by 0.95
 WARNING **** RDDFTP **** as recommended in original publication
 INFORMATION **** TOLDEE **** SCF TOL ON TOTAL ENERGY SET TO           9
 INFORMATION **** TOLINTEG **** COULOMB AND EXCHANGE SERIES TOLERANCES MODIFIED
 INFORMATION **** MAXCYCLE **** MAX NUMBER OF SCF CYCLES SET TO          30
 WARNING **** READM2 **** PROBABLE LOSS IN FREQCALC ACCURACY; SCF TOL LT          10
 *******************************************************************************
 N. OF ATOMS PER CELL        80  COULOMB OVERLAP TOL         (T1) 10**   -8
 NUMBER OF SHELLS           380  COULOMB PENETRATION TOL     (T2) 10**   -8
 NUMBER OF AO               732  EXCHANGE OVERLAP TOL        (T3) 10**   -8
 N. OF ELECTRONS PER CELL   320  EXCHANGE PSEUDO OVP (F(G))  (T4) 10**   -8
 CORE ELECTRONS PER CELL     88  EXCHANGE PSEUDO OVP (P(G))  (T5) 10**  -24
 N. OF SYMMETRY OPERATORS     4  POLE ORDER IN MONO ZONE                  4
 *******************************************************************************
 TYPE OF CALCULATION :  RESTRICTED CLOSED SHELL
 KOHN-SHAM HAMILTONIAN

 (EXCHANGE)[CORRELATION] FUNCTIONAL:(PBEh-3c)[PBEh-3c]


 HYBRID EXCHANGE - PERCENTAGE OF FOCK EXCHANGE    42.0000

 CAPPA:IS1  4;IS2  4;IS3  2; K PTS MONK NET  18; SYMMOPS:K SPACE   4;G SPACE   4

 *******************************************************************************
 MAX NUMBER OF SCF CYCLES      30  CONVERGENCE ON DELTAP        10**-19
 WEIGHT OF F(I) IN F(I+1)      50% CONVERGENCE ON ENERGY        10**- 9
 SHRINK. FACT.(MONKH.)    4  4  2  NUMBER OF K POINTS IN THE IBZ     18
 SHRINKING FACTOR(GILAT NET)    4  NUMBER OF K POINTS(GILAT NET)     18
 *******************************************************************************
 *** K POINTS COORDINATES (OBLIQUE COORDINATES IN UNITS OF IS =  4)
   1-R(  0  0  0)   2-C(  1  0  0)   3-R(  2  0  0)   4-C(  0  1  0)
   5-C(  1  1  0)   6-C(  2  1  0)   7-R(  0  2  0)   8-C(  1  2  0)
   9-R(  2  2  0)  10-R(  0  0  1)  11-C(  1  0  1)  12-R(  2  0  1)
  13-C(  0  1  1)  14-C(  1  1  1)  15-C(  2  1  1)  16-R(  0  2  1)
  17-C(  1  2  1)  18-R(  2  2  1)

 DIRECT LATTICE VECTORS COMPON. (A.U.)     RECIP. LATTICE VECTORS COMPON. (A.U.) 
        X            Y            Z              X            Y            Z
   13.5993239    0.0000000   -0.0344024      0.4626046    0.0000000    0.2303328
   -0.0000000   17.6957243   -0.0000000     -0.0000000    0.3550680   -0.0000000
  -10.7393509    0.0000000   21.5691062      0.0007378    0.0000000    0.2916722

 DISK SPACE FOR EIGENVECTORS (FTN 10)    15003072 REALS

 SYMMETRY ADAPTION OF THE BLOCH FUNCTIONS ENABLED
 TTTTTTTTTTTTTTTTTTTTTTTTTTTTTT gordsh1     TELAPSE        4.54 TCPU        2.77

 MATRIX SIZE: P(G) 2226592, F(G)  208438, P(G) IRR  282397, F(G) IRR   52887
 MAX G-VECTOR INDEX FOR 1- AND 2-ELECTRON INTEGRALS  95

 TTTTTTTTTTTTTTTTTTTTTTTTTTTTTT INPUT       TELAPSE        4.63 TCPU        2.86

 NEIGHBORS OF THE NON-EQUIVALENT ATOMS

 N = NUMBER OF NEIGHBORS AT DISTANCE R
    ATOM  N     R/ANG      R/AU   NEIGHBORS (ATOM LABELS AND CELL INDICES)
   1 O    1     0.9836     1.8587   61 H    1 0 0
   1 O    1     1.3484     2.5481   25 C    0 0 0
   1 O    1     2.0842     3.9386   68 H    0 0 0
   1 O    1     2.3589     4.4576   21 C    0 0 0
   1 O    1     2.4035     4.5419   29 C    1 0 0
   1 O    1     2.5963     4.9064   49 H    0 0 0

   5 O    1     1.2320     2.3282   37 C    0 0 0
   5 O    1     1.6946     3.2024   64 H    0 1 0
   5 O    1     2.2618     4.2741    9 N    0 1 0
   5 O    1     2.3921     4.5205   41 C    0 0 0
   5 O    1     2.4130     4.5599   45 H    0 1 0
   5 O    1     2.6339     4.9774   69 H    0 0 0

   9 N    1     1.0130     1.9144   65 H    1 0 0
   9 N    1     1.3402     2.5326   37 C    0-1 0
   9 N    1     1.4069     2.6586   13 C    0 0 0
   9 N    1     2.2618     4.2741    5 O    0-1 0
   9 N    1     2.3879     4.5124   33 C    1 0 0
   9 N    1     2.4028     4.5406   41 C    0-1 0

  13 C    1     1.3910     2.6286   17 C    0 0 0
  13 C    1     1.3918     2.6301   33 C    1 0 0
  13 C    1     1.4069     2.6586    9 N    0 0 0
  13 C    1     2.0503     3.8746   65 H    1 0 0
  13 C    1     2.1462     4.0558   57 H    1 0 0
  13 C    1     2.1555     4.0732   45 H    0 0 0

  17 C    1     1.0775     2.0362   45 H    0 0 0
  17 C    1     1.3871     2.6212   21 C    0 0 0
  17 C    1     1.3910     2.6286   13 C    0 0 0
  17 C    1     2.1328     4.0303   49 H    0 0 0
  17 C    1     2.3924     4.5210   33 C    1 0 0
  17 C    1     2.4187     4.5706   25 C    0 0 0

  21 C    1     1.0829     2.0464   49 H    0 0 0
  21 C    1     1.3871     2.6212   17 C    0 0 0
  21 C    1     1.3918     2.6301   25 C    0 0 0
  21 C    1     2.1247     4.0150   45 H    0 0 0
  21 C    1     2.3589     4.4576    1 O    0 0 0
  21 C    1     2.3941     4.5243   29 C    1 0 0

  25 C    1     1.3484     2.5481    1 O    0 0 0
  25 C    1     1.3918     2.6301   21 C    0 0 0
  25 C    1     1.3922     2.6309   29 C    1 0 0
  25 C    1     1.9482     3.6815   61 H    1 0 0
  25 C    1     2.1496     4.0622   49 H    0 0 0
  25 C    1     2.1535     4.0695   53 H    1 0 0

  29 C    1     1.0819     2.0446   53 H    0 0 0
  29 C    1     1.3829     2.6132   33 C    0 0 0
  29 C    1     1.3922     2.6309   25 C   -1 0 0
  29 C    1     2.1303     4.0257   57 H    0 0 0
  29 C    1     2.3941     4.5243   21 C   -1 0 0
  29 C    1     2.4035     4.5419    1 O   -1 0 0

  33 C    1     1.0828     2.0462   57 H    0 0 0
  33 C    1     1.3829     2.6132   29 C    0 0 0
  33 C    1     1.3918     2.6301   13 C   -1 0 0
  33 C    1     2.1315     4.0279   53 H    0 0 0
  33 C    1     2.3879     4.5124    9 N   -1 0 0
  33 C    1     2.3924     4.5210   17 C   -1 0 0

  37 C    1     1.2320     2.3282    5 O    0 0 0
  37 C    1     1.3402     2.5326    9 N    0 1 0
  37 C    1     1.5030     2.8402   41 C    0 0 0
  37 C    1     2.0071     3.7929   65 H    1 1 0
  37 C    1     2.1325     4.0299   77 H    0 0 0
  37 C    1     2.1400     4.0441   69 H    0 0 0

  41 C    1     1.0883     2.0566   73 H    0 0 0
  41 C    1     1.0889     2.0577   69 H    0 0 0
  41 C    1     1.0895     2.0588   77 H    0 0 0
  41 C    1     1.5030     2.8402   37 C    0 0 0
  41 C    1     2.3921     4.5205    5 O    0 0 0
  41 C    1     2.4028     4.5406    9 N    0 1 0

  45 H    1     1.0775     2.0362   17 C    0 0 0
  45 H    1     2.1247     4.0150   21 C    0 0 0
  45 H    1     2.1555     4.0732   13 C    0 0 0
  45 H    1     2.3325     4.4078   47 H    0-1 0
  45 H    1     2.4130     4.5599    5 O    0-1 0
  45 H    1     2.4257     4.5839   49 H    0 0 0

  49 H    1     1.0829     2.0464   21 C    0 0 0
  49 H    1     2.1328     4.0303   17 C    0 0 0
  49 H    1     2.1496     4.0622   25 C    0 0 0
  49 H    1     2.4257     4.5839   45 H    0 0 0
  49 H    1     2.5963     4.9064    1 O    0 0 0
  49 H    1     2.7306     5.1600   68 H    0 0 0

  53 H    1     1.0819     2.0446   29 C    0 0 0
  53 H    1     2.1315     4.0279   33 C    0 0 0
  53 H    1     2.1535     4.0695   25 C   -1 0 0
  53 H    1     2.2595     4.2699   72 H    0 0 0
  53 H    1     2.3784     4.4946   61 H    0 0 0
  53 H    1     2.4364     4.6041   57 H    0 0 0

  57 H    1     1.0828     2.0462   33 C    0 0 0
  57 H    1     2.1303     4.0257   29 C    0 0 0
  57 H    1     2.1462     4.0558   13 C   -1 0 0
  57 H    1     2.2937     4.3344   65 H    0 0 0
  57 H    1     2.4364     4.6041   53 H    0 0 0
  57 H    1     2.5537     4.8259   74 H    0 0 0

  61 H    1     0.9836     1.8587    1 O   -1 0 0
  61 H    1     1.6946     3.2024    8 O    0 0 0
  61 H    1     1.9482     3.6815   25 C   -1 0 0
  61 H    1     2.3784     4.4946   53 H    0 0 0
  61 H    1     2.5109     4.7450   29 C    0 0 0
  61 H    1     2.7384     5.1748   68 H   -1 0 0

  65 H    1     1.0130     1.9144    9 N   -1 0 0
  65 H    1     2.0071     3.7929   37 C   -1-1 0
  65 H    1     2.0503     3.8746   13 C   -1 0 0
  65 H    1     2.0842     3.9386    4 O    0 0 0
  65 H    1     2.1583     4.0786   73 H   -1-1 0
  65 H    1     2.2937     4.3344   57 H    0 0 0

  69 H    1     1.0889     2.0577   41 C    0 0 0
  69 H    1     1.7426     3.2931   77 H    0 0 0
  69 H    1     1.7738     3.3520   73 H    0 0 0
  69 H    1     2.1400     4.0441   37 C    0 0 0
  69 H    1     2.2595     4.2699   56 H    0 1 0
  69 H    1     2.6339     4.9774    5 O    0 0 0

  73 H    1     1.0883     2.0566   41 C    0 0 0
  73 H    1     1.7620     3.3297   77 H    0 0 0
  73 H    1     1.7738     3.3520   69 H    0 0 0
  73 H    1     2.1583     4.0786   65 H    1 1 0
  73 H    1     2.1758     4.1116   37 C    0 0 0
  73 H    1     2.5317     4.7842    9 N    0 1 0

  77 H    1     1.0895     2.0588   41 C    0 0 0
  77 H    1     1.7426     3.2931   69 H    0 0 0
  77 H    1     1.7620     3.3297   73 H    0 0 0
  77 H    1     2.1325     4.0299   37 C    0 0 0
  77 H    1     2.6423     4.9932    6 O    0 0 0
  77 H    1     2.7524     5.2013   63 H    0 0 0


 SYMMETRY ALLOWED INTERNAL DEGREE(S) OF FREEDOM:  60
 TTTTTTTTTTTTTTTTTTTTTTTTTTTTTT SYMM        TELAPSE        4.66 TCPU        2.89
 TTTTTTTTTTTTTTTTTTTTTTTTTTTTTT INT_SCREEN  TELAPSE        4.97 TCPU        3.19

 *******************************************************************************
 *                                                                             *
 *                                                                             *
 *         FFFFF  RRRR   EEEE   QQQ   U   U  EEEE  N   N   CCC  Y   Y          *
 *         F      R   R  E     Q   Q  U   U  E     NN  N  C      Y Y           *
 *         FFF    RRRR   EEEE  Q   Q  U   U  EEEE  N N N  C       Y            *
 *         F      R   R  E     Q  QQ  U   U  E     N  NN  C       Y            *
 *         F      R   R  EEEE   QQ Q   UUU   EEEE  N   N   CCC    Y            *
 *                                                                             *
 *                                                                             *
 * CALCULATION OF PHONON FREQUENCIES AT THE GAMMA POINT.                       *
 *                                                                             *
 * SYMMETRY IS EXPLOITED TO BUILD THE TOTAL HESSIAN MATRIX.                    *
 * (F. PASCALE PHD THESIS TURIN-PARIS 2002)                                    *
 *                                                                             *
 *******************************************************************************


 * INTENSITIES COMPUTED VIA THE BERRY PHASE APPROACH                           *
 *                                                                             *
 * REFERENCES TO BE QUOTED WHEN USING THIS MODULE:                             *
 *                                                                             *
 * F. Pascale, C.M. Zicovich-Wilson, F. Lopez, B. Civalleri                    *
 * R. Orlando, R. Dovesi                                                       *
 * The calculation of the vibration frequencies of crystalline                 *
 * compounds and its implementation in the CRYSTAL code                        *
 * J. Comput. Chem. 25 (2004) 888-897                                          *
 *                                                                             *
 * C.M. Zicovich-Wilson, F. Pascale, C. Roetti, V.R. Saunders,                 *
 * R. Orlando, R. Dovesi                                                       *
 * The calculation of the vibration frequencies of alpha-quartz:               *
 * the effect of hamiltonian and basis set                                     *
 * J. Comput. Chem. 25 (2004) 1873-1881                                        *
 *******************************************************************************



 ATOMS ISOTOPIC MASS (AMU) FOR FREQUENCY CALCULATION 

    1 O      15.9949    2 O      15.9949    3 O      15.9949    4 O      15.9949
    5 O      15.9949    6 O      15.9949    7 O      15.9949    8 O      15.9949
    9 N      14.0031   10 N      14.0031   11 N      14.0031   12 N      14.0031
   13 C      12.0000   14 C      12.0000   15 C      12.0000   16 C      12.0000
   17 C      12.0000   18 C      12.0000   19 C      12.0000   20 C      12.0000
   21 C      12.0000   22 C      12.0000   23 C      12.0000   24 C      12.0000
   25 C      12.0000   26 C      12.0000   27 C      12.0000   28 C      12.0000
   29 C      12.0000   30 C      12.0000   31 C      12.0000   32 C      12.0000
   33 C      12.0000   34 C      12.0000   35 C      12.0000   36 C      12.0000
   37 C      12.0000   38 C      12.0000   39 C      12.0000   40 C      12.0000
   41 C      12.0000   42 C      12.0000   43 C      12.0000   44 C      12.0000
   45 H       1.0078   46 H       1.0078   47 H       1.0078   48 H       1.0078
   49 H       1.0078   50 H       1.0078   51 H       1.0078   52 H       1.0078
   53 H       1.0078   54 H       1.0078   55 H       1.0078   56 H       1.0078
   57 H       1.0078   58 H       1.0078   59 H       1.0078   60 H       1.0078
   61 H       1.0078   62 H       1.0078   63 H       1.0078   64 H       1.0078
   65 H       1.0078   66 H       1.0078   67 H       1.0078   68 H       1.0078
   69 H       1.0078   70 H       1.0078   71 H       1.0078   72 H       1.0078
   73 H       1.0078   74 H       1.0078   75 H       1.0078   76 H       1.0078
   77 H       1.0078   78 H       1.0078   79 H       1.0078   80 H       1.0078

 INFORMATION CONCERNING THE SCF+GRADIENT CALCULATIONS REQUIRED FOR
 GENERATING FREQUENCIES. IN PRINCIPLE 3N+1 SCF + GRADIENT
 CALCULATIONS  ARE REQUIRED;
 FOR EACH OF THEM THE REMAINING POINT SYMMETRY IS INDICATED.
 POINT SYMMETRY PERMITS TO GENERATE GRADIENTS FOR DISPLACEMENT B 
 STARTING FROM THE GRADIENT GENERATED BY DISPLACEMENT A.

   N   LABEL SYMBOL DISPLACEMENT     SYM. 

   1     EQUILIBRIUM GEOMETRY            4

   2      1   O            DX           1
   3      1   O            DY           1
   4      1   O            DZ           1
   5      5   O            DX           1
   6      5   O            DY           1
   7      5   O            DZ           1
   8      9   N            DX           1
   9      9   N            DY           1
  10      9   N            DZ           1
  11     13   C            DX           1
  12     13   C            DY           1
  13     13   C            DZ           1
  14     17   C            DX           1
  15     17   C            DY           1
  16     17   C            DZ           1
  17     21   C            DX           1
  18     21   C            DY           1
  19     21   C            DZ           1
  20     25   C            DX           1
  21     25   C            DY           1
  22     25   C            DZ           1
  23     29   C            DX           1
  24     29   C            DY           1
  25     29   C            DZ           1
  26     33   C            DX           1
  27     33   C            DY           1
  28     33   C            DZ           1
  29     37   C            DX           1
  30     37   C            DY           1
  31     37   C            DZ           1
  32     41   C            DX           1
  33     41   C            DY           1
  34     41   C            DZ           1
  35     45   H            DX           1
  36     45   H            DY           1
  37     45   H            DZ           1
  38     49   H            DX           1
  39     49   H            DY           1
  40     49   H            DZ           1
  41     53   H            DX           1
  42     53   H            DY           1
  43     53   H            DZ           1
  44     57   H            DX           1
  45     57   H            DY           1
  46     57   H            DZ           1
  47     61   H            DX           1
  48     61   H            DY           1
  49     61   H            DZ           1
  50     65   H            DX           1
  51     65   H            DY           1
  52     65   H            DZ           1
  53     69   H            DX           1
  54     69   H            DY           1
  55     69   H            DZ           1
  56     73   H            DX           1
  57     73   H            DY           1
  58     73   H            DZ           1
  59     77   H            DX           1
  60     77   H            DY           1
  61     77   H            DZ           1
 USE OF RESIDUAL SYMMETRY AFTER DISPLACEMENT

 NUMERICAL GRADIENT COMPUTED WITH A SINGLE DISPLACEMENT (+DX) FOR EACH
 CARTESIAN COORDINATE WITH RESPECT TO THE EQUILIBRIUM CONFIGURATION
 DX=  0.003 ANGSTROM
 NUMBER OF IRREDUCIBLE ATOMS                    20
 NUMBER OF SCF+GRADIENT CALCULATIONS            61

  ATOM  SYMOP  ORDER
    1      1      1
    5      1      1
    9      1      1
   13      1      1
   17      1      1
   21      1      1
   25      1      1
   29      1      1
   33      1      1
   37      1      1
   41      1      1
   45      1      1
   49      1      1
   53      1      1
   57      1      1
   61      1      1
   65      1      1
   69      1      1
   73      1      1
   77      1      1

 ATOM  : IRREDUCIBLE ATOM
 SYMOP : NUMBER OF SYMMETRY OPERATORS THAT DOESN'T MOVE THE IRREDUCIBLE ATOM
 ORDER : MAXIMUM ORDER AMONG THE OPERATORS OF THE IRREDUCIBLE ATOM

 *******************************************************************************


 GCALCO - MAX INDICES DIRECT LATTICE VECTOR    20    14    11
 NO.OF VECTORS CREATED 6999 STARS 1868 RMAX   205.27319 BOHR

 CAPPA:IS1  4;IS2  4;IS3  2; K PTS MONK NET  18; SYMMOPS:K SPACE   4;G SPACE   4

 TTTTTTTTTTTTTTTTTTTTTTTTTTTTTT gordsh1     TELAPSE        5.00 TCPU        3.22

 MATRIX SIZE: P(G) 2226592, F(G)  208438, P(G) IRR  282397, F(G) IRR   52887
 MAX G-VECTOR INDEX FOR 1- AND 2-ELECTRON INTEGRALS  95

 TTTTTTTTTTTTTTTTTTTTTTTTTTTTTT INPUT       TELAPSE        5.02 TCPU        3.24

 SYMMETRY ALLOWED INTERNAL DEGREE(S) OF FREEDOM:  60
 TTTTTTTTTTTTTTTTTTTTTTTTTTTTTT SYMM        TELAPSE        5.04 TCPU        3.26
 TTTTTTTTTTTTTTTTTTTTTTTTTTTTTT INT_SCREEN  TELAPSE        5.05 TCPU        3.28
 INFORMATION **** EXCBUF **** EXCH. BIPO BUFFER: WORDS USED =     3795147

 DFT PARAMETERS

     ATOM       ELECTRONS   NET CHARGE   R(ANGSTROM)
   1   8  O       8.0000      0.0000     0.74000000
   9   7  N       7.0000      0.0000     0.74000000
  13   6  C       6.0000      0.0000     0.77000000
  45   1  H       1.0000      0.0000     1.11000000

 SIZE OF GRID=    1000312
 TTTTTTTTTTTTTTTTTTTTTTTTTTTTTT MAKE_GRID2  TELAPSE        8.22 TCPU        6.45
 BECKE WEIGHT FUNCTION
 RADSAFE =     2.00
 TOLERANCES - DENSITY:10**- 6; POTENTIAL:10**- 9; GRID WGT:10**-14

 RADIAL INTEGRATION  - INTERVALS (POINTS,UPPER LIMIT):            1( 99,  4.0*R)

 ANGULAR INTEGRATION - INTERVALS (ACCURACY LEVEL [N. POINTS] UPPER LIMIT):
  1(  6[ 146]   0.2)  2( 11[ 302]   0.5)  3( 14[ 590]   0.9)  4( 18[1454]   3.5)
  5( 14[ 590]9999.0)
 TTTTTTTTTTTTTTTTTTTTTTTTTTTTTT INT_CALC    TELAPSE        8.26 TCPU        6.49

 *******************************************************************************
 F1 vol step3 freq - PBEh-3c                                                     
 CRYSTAL - SCF - TYPE OF CALCULATION :  RESTRICTED CLOSED SHELL
 *******************************************************************************

 CAPPA:IS1  4;IS2  4;IS3  2; K PTS MONK NET  18; SYMMOPS:K SPACE   4;G SPACE   4

 TTTTTTTTTTTTTTTTTTTTTTTTTTTTTT SDIK        TELAPSE        8.53 TCPU        6.75

 AAAAAAAAAAAAAAAAAAAAAAAAAAAAAAAAAAAAAAAAAAAAAAAAAAAAAAAAAAAAAAAAAAAAAAAAAAAAAAA
         ATOMIC WAVEFUNCTION(S)


 NUCLEAR CHARGE  8.0  SYMMETRY SPECIES            S    P
 N. ELECTRONS    8.0  NUMBER OF PRIMITIVE GTOS    8    4
                      NUMBER OF CONTRACTED GTOS   4    2
                      NUMBER OF CLOSED SHELLS     2    0
                      OPEN SHELL OCCUPATION       0    4

  ZNUC SCFIT  TOTAL HF ENERGY   KINETIC ENERGY   VIRIAL THEOREM ACCURACY
   8.0  12   -7.477373220E+01  7.477365593E+01 -2.000001020E+00  3.8E-06

 NUCLEAR CHARGE  7.0  SYMMETRY SPECIES            S    P
 N. ELECTRONS    7.0  NUMBER OF PRIMITIVE GTOS    8    4
                      NUMBER OF CONTRACTED GTOS   4    2
                      NUMBER OF CLOSED SHELLS     2    0
                      OPEN SHELL OCCUPATION       0    3

  ZNUC SCFIT  TOTAL HF ENERGY   KINETIC ENERGY   VIRIAL THEOREM ACCURACY
   7.0   9   -5.437948210E+01  5.437948297E+01 -1.999999984E+00  1.2E-06

 NUCLEAR CHARGE  6.0  SYMMETRY SPECIES            S    P
 N. ELECTRONS    6.0  NUMBER OF PRIMITIVE GTOS    8    4
                      NUMBER OF CONTRACTED GTOS   4    2
                      NUMBER OF CLOSED SHELLS     2    0
                      OPEN SHELL OCCUPATION       0    2

  ZNUC SCFIT  TOTAL HF ENERGY   KINETIC ENERGY   VIRIAL THEOREM ACCURACY
   6.0   9   -3.767634636E+01  3.767630973E+01 -2.000000972E+00  4.2E-06

 NUCLEAR CHARGE  1.0  SYMMETRY SPECIES            S
 N. ELECTRONS    1.0  NUMBER OF PRIMITIVE GTOS    4
                      NUMBER OF CONTRACTED GTOS   2
                      NUMBER OF CLOSED SHELLS     0
                      OPEN SHELL OCCUPATION       1

  ZNUC SCFIT  TOTAL HF ENERGY   KINETIC ENERGY   VIRIAL THEOREM ACCURACY
   1.0   1   -4.977266687E-01  5.190767460E-01 -1.958869132E+00  2.2E-17

 AAAAAAAAAAAAAAAAAAAAAAAAAAAAAAAAAAAAAAAAAAAAAAAAAAAAAAAAAAAAAAAAAAAAAAAAAAAAAAA

 TTTTTTTTTTTTTTTTTTTTTTTTTTTTTT MOQGAD      TELAPSE        8.91 TCPU        7.02
 TTTTTTTTTTTTTTTTTTTTTTTTTTTTTT SHELLXN     TELAPSE       10.77 TCPU        8.88
 TTTTTTTTTTTTTTTTTTTTTTTTTTTTTT MONMO3      TELAPSE       11.88 TCPU        9.99
 NUMERICALLY INTEGRATED DENSITY    319.9998803148
 TTTTTTTTTTTTTTTTTTTTTTTTTTTTTT NUMDFT      TELAPSE       12.30 TCPU       10.41
 CYC   0 ETOT(AU) -2.070682156474E+03 DETOT -2.07E+03 tst  0.00E+00 PX  1.00E+00
 TTTTTTTTTTTTTTTTTTTTTTTTTTTTTT DIIS        TELAPSE       12.34 TCPU       10.45
 TTTTTTTTTTTTTTTTTTTTTTTTTTTTTT FDIK        TELAPSE       12.98 TCPU       11.08
 INSULATING STATE
 TOP OF VALENCE BANDS -    BAND    160; K    1; EIG -2.8169124E-01 AU
 BOTTOM OF VIRTUAL BANDS - BAND    161; K    7; EIG -1.2535330E-01 AU
 INDIRECT ENERGY BAND GAP:   4.2542 eV
 BOTTOM OF VIRTUAL BANDS - BAND    161; K    1; EIG -1.2020183E-01 AU
 TTTTTTTTTTTTTTTTTTTTTTTTTTTTTT PDIG        TELAPSE       13.33 TCPU       11.43
 TTTTTTTTTTTTTTTTTTTTTTTTTTTTTT MOQGAD      TELAPSE       13.33 TCPU       11.43
 TTTTTTTTTTTTTTTTTTTTTTTTTTTTTT SHELLXN     TELAPSE       15.29 TCPU       13.37
 TTTTTTTTTTTTTTTTTTTTTTTTTTTTTT MONMO3      TELAPSE       16.50 TCPU       14.58
 NUMERICALLY INTEGRATED DENSITY    319.9999044250
 TTTTTTTTTTTTTTTTTTTTTTTTTTTTTT NUMDFT      TELAPSE       17.00 TCPU       15.08
 CYC   1 ETOT(AU) -2.057246634942E+03 DETOT  1.34E+01 tst  0.00E+00 PX  1.00E+00
 TTTTTTTTTTTTTTTTTTTTTTTTTTTTTT DIIS        TELAPSE       17.03 TCPU       15.12
 DIIS TEST: 0.17569E+01 AT SCF   CYCLE   1 - MIX   50 %
 TTTTTTTTTTTTTTTTTTTTTTTTTTTTTT FDIK        TELAPSE       17.62 TCPU       15.70
 INSULATING STATE
 TOP OF VALENCE BANDS -    BAND    160; K   10; EIG -2.4930749E-01 AU
 TOP OF VALENCE BANDS -    BAND    160; K    1; EIG -2.4937120E-01 AU
 BOTTOM OF VIRTUAL BANDS - BAND    161; K    1; EIG -4.6931375E-02 AU
 INDIRECT ENERGY BAND GAP:   5.5069 eV
 TTTTTTTTTTTTTTTTTTTTTTTTTTTTTT PDIG        TELAPSE       17.97 TCPU       16.05
 TTTTTTTTTTTTTTTTTTTTTTTTTTTTTT MOQGAD      TELAPSE       17.97 TCPU       16.05
 TTTTTTTTTTTTTTTTTTTTTTTTTTTTTT SHELLXN     TELAPSE       19.92 TCPU       18.00
 TTTTTTTTTTTTTTTTTTTTTTTTTTTTTT MONMO3      TELAPSE       21.07 TCPU       19.15
 NUMERICALLY INTEGRATED DENSITY    319.9999001160
 TTTTTTTTTTTTTTTTTTTTTTTTTTTTTT NUMDFT      TELAPSE       21.49 TCPU       19.57
 CYC   2 ETOT(AU) -2.057711277390E+03 DETOT -4.65E-01 tst  9.75E-04 PX  1.28E-01
 TTTTTTTTTTTTTTTTTTTTTTTTTTTTTT DIIS        TELAPSE       21.53 TCPU       19.60
 DIIS TEST: 0.14231E+00 AT SCF   CYCLE   2 - DIIS ACTIVE - HISTORY:     2 CYCLES
 TTTTTTTTTTTTTTTTTTTTTTTTTTTTTT FDIK        TELAPSE       22.16 TCPU       20.22
 INSULATING STATE
 TOP OF VALENCE BANDS -    BAND    160; K   10; EIG -2.4067818E-01 AU
 TOP OF VALENCE BANDS -    BAND    160; K    1; EIG -2.4072437E-01 AU
 BOTTOM OF VIRTUAL BANDS - BAND    161; K    7; EIG -5.2452576E-03 AU
 INDIRECT ENERGY BAND GAP:   6.4065 eV
 BOTTOM OF VIRTUAL BANDS - BAND    161; K    1; EIG -1.7341654E-03 AU
 TTTTTTTTTTTTTTTTTTTTTTTTTTTTTT PDIG        TELAPSE       22.51 TCPU       20.57
 TTTTTTTTTTTTTTTTTTTTTTTTTTTTTT MOQGAD      TELAPSE       22.51 TCPU       20.57
 TTTTTTTTTTTTTTTTTTTTTTTTTTTTTT SHELLXN     TELAPSE       24.47 TCPU       22.53
 TTTTTTTTTTTTTTTTTTTTTTTTTTTTTT MONMO3      TELAPSE       25.62 TCPU       23.68
 NUMERICALLY INTEGRATED DENSITY    319.9998949942
 TTTTTTTTTTTTTTTTTTTTTTTTTTTTTT NUMDFT      TELAPSE       26.04 TCPU       24.10
 CYC   3 ETOT(AU) -2.057733426279E+03 DETOT -2.21E-02 tst  2.07E-04 PX  4.24E-02
 TTTTTTTTTTTTTTTTTTTTTTTTTTTTTT DIIS        TELAPSE       26.08 TCPU       24.13
 DIIS TEST: 0.79538E-01 AT SCF   CYCLE   3 - DIIS ACTIVE - HISTORY:     3 CYCLES
 TTTTTTTTTTTTTTTTTTTTTTTTTTTTTT FDIK        TELAPSE       26.66 TCPU       24.71
 INSULATING STATE
 TOP OF VALENCE BANDS -    BAND    160; K   10; EIG -2.5081757E-01 AU
 TOP OF VALENCE BANDS -    BAND    160; K    1; EIG -2.5093409E-01 AU
 BOTTOM OF VIRTUAL BANDS - BAND    161; K   16; EIG -1.2098611E-02 AU
 INDIRECT ENERGY BAND GAP:   6.4959 eV
 BOTTOM OF VIRTUAL BANDS - BAND    161; K    1; EIG -7.4996488E-03 AU
 TTTTTTTTTTTTTTTTTTTTTTTTTTTTTT PDIG        TELAPSE       27.01 TCPU       25.06
 TTTTTTTTTTTTTTTTTTTTTTTTTTTTTT MOQGAD      TELAPSE       27.01 TCPU       25.06
 TTTTTTTTTTTTTTTTTTTTTTTTTTTTTT SHELLXN     TELAPSE       28.97 TCPU       27.02
 TTTTTTTTTTTTTTTTTTTTTTTTTTTTTT MONMO3      TELAPSE       30.12 TCPU       28.17
 NUMERICALLY INTEGRATED DENSITY    319.9998975193
 TTTTTTTTTTTTTTTTTTTTTTTTTTTTTT NUMDFT      TELAPSE       30.37 TCPU       28.42
 CYC   4 ETOT(AU) -2.057751484167E+03 DETOT -1.81E-02 tst  1.18E-04 PX  3.22E-02
 TTTTTTTTTTTTTTTTTTTTTTTTTTTTTT DIIS        TELAPSE       30.40 TCPU       28.45
 DIIS TEST: 0.90176E-02 AT SCF   CYCLE   4 - DIIS ACTIVE - HISTORY:     4 CYCLES
 TTTTTTTTTTTTTTTTTTTTTTTTTTTTTT FDIK        TELAPSE       30.99 TCPU       29.03
 INSULATING STATE
 TOP OF VALENCE BANDS -    BAND    160; K   10; EIG -2.4847650E-01 AU
 TOP OF VALENCE BANDS -    BAND    160; K    1; EIG -2.4857928E-01 AU
 BOTTOM OF VIRTUAL BANDS - BAND    161; K    7; EIG -1.0043701E-02 AU
 INDIRECT ENERGY BAND GAP:   6.4881 eV
 BOTTOM OF VIRTUAL BANDS - BAND    161; K    1; EIG -6.1898307E-03 AU
 TTTTTTTTTTTTTTTTTTTTTTTTTTTTTT PDIG        TELAPSE       31.34 TCPU       29.38
 TTTTTTTTTTTTTTTTTTTTTTTTTTTTTT MOQGAD      TELAPSE       31.34 TCPU       29.38
 TTTTTTTTTTTTTTTTTTTTTTTTTTTTTT SHELLXN     TELAPSE       33.29 TCPU       31.33
 TTTTTTTTTTTTTTTTTTTTTTTTTTTTTT MONMO3      TELAPSE       34.45 TCPU       32.49
 NUMERICALLY INTEGRATED DENSITY    319.9998969274
 TTTTTTTTTTTTTTTTTTTTTTTTTTTTTT NUMDFT      TELAPSE       34.87 TCPU       32.90
 CYC   5 ETOT(AU) -2.057753619542E+03 DETOT -2.14E-03 tst  9.35E-06 PX  8.06E-03
 TTTTTTTTTTTTTTTTTTTTTTTTTTTTTT DIIS        TELAPSE       34.90 TCPU       32.94
 DIIS TEST: 0.81096E-03 AT SCF   CYCLE   5 - DIIS ACTIVE - HISTORY:     5 CYCLES
 TTTTTTTTTTTTTTTTTTTTTTTTTTTTTT FDIK        TELAPSE       35.49 TCPU       33.52
 INSULATING STATE
 TOP OF VALENCE BANDS -    BAND    160; K   10; EIG -2.4816227E-01 AU
 TOP OF VALENCE BANDS -    BAND    160; K    1; EIG -2.4826902E-01 AU
 BOTTOM OF VIRTUAL BANDS - BAND    161; K   16; EIG -9.7552424E-03 AU
 INDIRECT ENERGY BAND GAP:   6.4874 eV
 BOTTOM OF VIRTUAL BANDS - BAND    161; K    1; EIG -5.5304729E-03 AU
 TTTTTTTTTTTTTTTTTTTTTTTTTTTTTT PDIG        TELAPSE       35.83 TCPU       33.87
 TTTTTTTTTTTTTTTTTTTTTTTTTTTTTT MOQGAD      TELAPSE       35.84 TCPU       33.87
 TTTTTTTTTTTTTTTTTTTTTTTTTTTTTT SHELLXN     TELAPSE       37.78 TCPU       35.81
 TTTTTTTTTTTTTTTTTTTTTTTTTTTTTT MONMO3      TELAPSE       38.94 TCPU       36.97
 NUMERICALLY INTEGRATED DENSITY    319.9998968323
 TTTTTTTTTTTTTTTTTTTTTTTTTTTTTT NUMDFT      TELAPSE       39.29 TCPU       37.32
 CYC   6 ETOT(AU) -2.057753803601E+03 DETOT -1.84E-04 tst  1.39E-06 PX  1.72E-03
 TTTTTTTTTTTTTTTTTTTTTTTTTTTTTT DIIS        TELAPSE       39.35 TCPU       37.38
 DIIS TEST: 0.48349E-04 AT SCF   CYCLE   6 - DIIS ACTIVE - HISTORY:     6 CYCLES
 TTTTTTTTTTTTTTTTTTTTTTTTTTTTTT FDIK        TELAPSE       39.94 TCPU       37.96
 INSULATING STATE
 TOP OF VALENCE BANDS -    BAND    160; K   10; EIG -2.4809068E-01 AU
 TOP OF VALENCE BANDS -    BAND    160; K    1; EIG -2.4819234E-01 AU
 BOTTOM OF VIRTUAL BANDS - BAND    161; K    7; EIG -9.7353699E-03 AU
 INDIRECT ENERGY BAND GAP:   6.4860 eV
 BOTTOM OF VIRTUAL BANDS - BAND    161; K    1; EIG -5.4226158E-03 AU
 TTTTTTTTTTTTTTTTTTTTTTTTTTTTTT PDIG        TELAPSE       40.29 TCPU       38.31
 TTTTTTTTTTTTTTTTTTTTTTTTTTTTTT MOQGAD      TELAPSE       40.29 TCPU       38.31
 TTTTTTTTTTTTTTTTTTTTTTTTTTTTTT SHELLXN     TELAPSE       42.26 TCPU       40.26
 TTTTTTTTTTTTTTTTTTTTTTTTTTTTTT MONMO3      TELAPSE       43.40 TCPU       41.40
 NUMERICALLY INTEGRATED DENSITY    319.9998968046
 TTTTTTTTTTTTTTTTTTTTTTTTTTTTTT NUMDFT      TELAPSE       43.78 TCPU       41.78
 CYC   7 ETOT(AU) -2.057753813803E+03 DETOT -1.02E-05 tst  2.13E-07 PX  4.95E-04
 TTTTTTTTTTTTTTTTTTTTTTTTTTTTTT DIIS        TELAPSE       43.82 TCPU       41.81
 DIIS TEST: 0.78494E-05 AT SCF   CYCLE   7 - DIIS ACTIVE - HISTORY:     7 CYCLES
 TTTTTTTTTTTTTTTTTTTTTTTTTTTTTT FDIK        TELAPSE       44.40 TCPU       42.40
 INSULATING STATE
 TOP OF VALENCE BANDS -    BAND    160; K   10; EIG -2.4812691E-01 AU
 TOP OF VALENCE BANDS -    BAND    160; K    1; EIG -2.4823087E-01 AU
 BOTTOM OF VIRTUAL BANDS - BAND    161; K    7; EIG -9.7401045E-03 AU
 INDIRECT ENERGY BAND GAP:   6.4868 eV
 BOTTOM OF VIRTUAL BANDS - BAND    161; K    1; EIG -5.4716534E-03 AU
 TTTTTTTTTTTTTTTTTTTTTTTTTTTTTT PDIG        TELAPSE       44.75 TCPU       42.75
 TTTTTTTTTTTTTTTTTTTTTTTTTTTTTT MOQGAD      TELAPSE       44.76 TCPU       42.75
 TTTTTTTTTTTTTTTTTTTTTTTTTTTTTT SHELLXN     TELAPSE       46.71 TCPU       44.70
 TTTTTTTTTTTTTTTTTTTTTTTTTTTTTT MONMO3      TELAPSE       47.86 TCPU       45.85
 NUMERICALLY INTEGRATED DENSITY    319.9998968010
 TTTTTTTTTTTTTTTTTTTTTTTTTTTTTT NUMDFT      TELAPSE       48.21 TCPU       46.20
 CYC   8 ETOT(AU) -2.057753816226E+03 DETOT -2.42E-06 tst  1.55E-08 PX  1.84E-04
 TTTTTTTTTTTTTTTTTTTTTTTTTTTTTT DIIS        TELAPSE       48.24 TCPU       46.23
 DIIS TEST: 0.29461E-06 AT SCF   CYCLE   8 - DIIS ACTIVE - HISTORY:     8 CYCLES
 TTTTTTTTTTTTTTTTTTTTTTTTTTTTTT FDIK        TELAPSE       48.84 TCPU       46.82
 INSULATING STATE
 TOP OF VALENCE BANDS -    BAND    160; K   10; EIG -2.4813668E-01 AU
 TOP OF VALENCE BANDS -    BAND    160; K    1; EIG -2.4823993E-01 AU
 BOTTOM OF VIRTUAL BANDS - BAND    161; K    7; EIG -9.7454973E-03 AU
 INDIRECT ENERGY BAND GAP:   6.4870 eV
 BOTTOM OF VIRTUAL BANDS - BAND    161; K    1; EIG -5.4754892E-03 AU
 TTTTTTTTTTTTTTTTTTTTTTTTTTTTTT PDIG        TELAPSE       49.19 TCPU       47.17
 TTTTTTTTTTTTTTTTTTTTTTTTTTTTTT MOQGAD      TELAPSE       49.19 TCPU       47.18
 TTTTTTTTTTTTTTTTTTTTTTTTTTTTTT SHELLXN     TELAPSE       51.16 TCPU       49.12
 TTTTTTTTTTTTTTTTTTTTTTTTTTTTTT MONMO3      TELAPSE       52.30 TCPU       50.27
 NUMERICALLY INTEGRATED DENSITY    319.9998968020
 TTTTTTTTTTTTTTTTTTTTTTTTTTTTTT NUMDFT      TELAPSE       52.80 TCPU       50.76
 CYC   9 ETOT(AU) -2.057753816481E+03 DETOT -2.55E-07 tst  1.33E-09 PX  5.08E-05
 TTTTTTTTTTTTTTTTTTTTTTTTTTTTTT DIIS        TELAPSE       53.00 TCPU       50.96
 DIIS TEST: 0.71042E-07 AT SCF   CYCLE   9 - DIIS ACTIVE - HISTORY:     9 CYCLES
 TTTTTTTTTTTTTTTTTTTTTTTTTTTTTT FDIK        TELAPSE       53.59 TCPU       51.55
 INSULATING STATE
 TOP OF VALENCE BANDS -    BAND    160; K   10; EIG -2.4813531E-01 AU
 TOP OF VALENCE BANDS -    BAND    160; K    1; EIG -2.4823887E-01 AU
 BOTTOM OF VIRTUAL BANDS - BAND    161; K    7; EIG -9.7504508E-03 AU
 INDIRECT ENERGY BAND GAP:   6.4868 eV
 BOTTOM OF VIRTUAL BANDS - BAND    161; K    1; EIG -5.4730284E-03 AU
 TTTTTTTTTTTTTTTTTTTTTTTTTTTTTT PDIG        TELAPSE       53.94 TCPU       51.90
 TTTTTTTTTTTTTTTTTTTTTTTTTTTTTT MOQGAD      TELAPSE       53.95 TCPU       51.90
 TTTTTTTTTTTTTTTTTTTTTTTTTTTTTT SHELLXN     TELAPSE       55.89 TCPU       53.85
 TTTTTTTTTTTTTTTTTTTTTTTTTTTTTT MONMO3      TELAPSE       57.05 TCPU       55.01
 NUMERICALLY INTEGRATED DENSITY    319.9998968012
 TTTTTTTTTTTTTTTTTTTTTTTTTTTTTT NUMDFT      TELAPSE       57.48 TCPU       55.43
 CYC  10 ETOT(AU) -2.057753816505E+03 DETOT -2.39E-08 tst  1.03E-10 PX  2.57E-05
 TTTTTTTTTTTTTTTTTTTTTTTTTTTTTT DIIS        TELAPSE       57.51 TCPU       55.47
 DIIS TEST: 0.53419E-08 AT SCF   CYCLE  10 - DIIS ACTIVE - HISTORY:    10 CYCLES
 TTTTTTTTTTTTTTTTTTTTTTTTTTTTTT FDIK        TELAPSE       58.11 TCPU       56.06
 INSULATING STATE
 TOP OF VALENCE BANDS -    BAND    160; K   10; EIG -2.4813521E-01 AU
 TOP OF VALENCE BANDS -    BAND    160; K    1; EIG -2.4823873E-01 AU
 BOTTOM OF VIRTUAL BANDS - BAND    161; K    7; EIG -9.7483795E-03 AU
 INDIRECT ENERGY BAND GAP:   6.4868 eV
 BOTTOM OF VIRTUAL BANDS - BAND    161; K    1; EIG -5.4727683E-03 AU
 TTTTTTTTTTTTTTTTTTTTTTTTTTTTTT PDIG        TELAPSE       58.46 TCPU       56.41
 TTTTTTTTTTTTTTTTTTTTTTTTTTTTTT MOQGAD      TELAPSE       58.46 TCPU       56.41
 TTTTTTTTTTTTTTTTTTTTTTTTTTTTTT SHELLXN     TELAPSE       60.41 TCPU       58.36
 TTTTTTTTTTTTTTTTTTTTTTTTTTTTTT MONMO3      TELAPSE       61.57 TCPU       59.52
 NUMERICALLY INTEGRATED DENSITY    319.9998968008
 TTTTTTTTTTTTTTTTTTTTTTTTTTTTTT NUMDFT      TELAPSE       61.91 TCPU       59.86
 CYC  11 ETOT(AU) -2.057753816521E+03 DETOT -1.59E-08 tst  1.12E-11 PX  5.77E-06
 TTTTTTTTTTTTTTTTTTTTTTTTTTTTTT DIIS        TELAPSE       61.95 TCPU       59.89
 DIIS TEST: 0.42978E-09 AT SCF   CYCLE  11 - DIIS ACTIVE - HISTORY:    11 CYCLES
 TTTTTTTTTTTTTTTTTTTTTTTTTTTTTT FDIK        TELAPSE       62.54 TCPU       60.48
 INSULATING STATE
 TOP OF VALENCE BANDS -    BAND    160; K   10; EIG -2.4813479E-01 AU
 TOP OF VALENCE BANDS -    BAND    160; K    1; EIG -2.4823833E-01 AU
 BOTTOM OF VIRTUAL BANDS - BAND    161; K    7; EIG -9.7483799E-03 AU
 INDIRECT ENERGY BAND GAP:   6.4868 eV
 BOTTOM OF VIRTUAL BANDS - BAND    161; K    1; EIG -5.4725580E-03 AU
 TTTTTTTTTTTTTTTTTTTTTTTTTTTTTT PDIG        TELAPSE       62.89 TCPU       60.84
 TTTTTTTTTTTTTTTTTTTTTTTTTTTTTT MOQGAD      TELAPSE       62.90 TCPU       60.84
 TTTTTTTTTTTTTTTTTTTTTTTTTTTTTT SHELLXN     TELAPSE       64.84 TCPU       62.78
 TTTTTTTTTTTTTTTTTTTTTTTTTTTTTT MONMO3      TELAPSE       66.00 TCPU       63.94
 NUMERICALLY INTEGRATED DENSITY    319.9998968010
 TTTTTTTTTTTTTTTTTTTTTTTTTTTTTT NUMDFT      TELAPSE       66.42 TCPU       64.36
 CYC  12 ETOT(AU) -2.057753816519E+03 DETOT  2.06E-09 tst  1.07E-12 PX  1.57E-06
 TTTTTTTTTTTTTTTTTTTTTTTTTTTTTT DIIS        TELAPSE       66.45 TCPU       64.39
 DIIS TEST: 0.36461E-10 AT SCF   CYCLE  12 - DIIS ACTIVE - HISTORY:    12 CYCLES
 TTTTTTTTTTTTTTTTTTTTTTTTTTTTTT FDIK        TELAPSE       67.04 TCPU       64.98
 INSULATING STATE
 TOP OF VALENCE BANDS -    BAND    160; K   10; EIG -2.4813468E-01 AU
 TOP OF VALENCE BANDS -    BAND    160; K    1; EIG -2.4823822E-01 AU
 BOTTOM OF VIRTUAL BANDS - BAND    161; K    7; EIG -9.7482246E-03 AU
 INDIRECT ENERGY BAND GAP:   6.4868 eV
 BOTTOM OF VIRTUAL BANDS - BAND    161; K    1; EIG -5.4723790E-03 AU
 TTTTTTTTTTTTTTTTTTTTTTTTTTTTTT PDIG        TELAPSE       67.39 TCPU       65.32
 TTTTTTTTTTTTTTTTTTTTTTTTTTTTTT MOQGAD      TELAPSE       67.39 TCPU       65.33
 TTTTTTTTTTTTTTTTTTTTTTTTTTTTTT SHELLXN     TELAPSE       69.34 TCPU       67.27
 TTTTTTTTTTTTTTTTTTTTTTTTTTTTTT MONMO3      TELAPSE       70.50 TCPU       68.43
 NUMERICALLY INTEGRATED DENSITY    319.9998968010
 TTTTTTTTTTTTTTTTTTTTTTTTTTTTTT NUMDFT      TELAPSE       70.96 TCPU       68.90
 CYC  13 ETOT(AU) -2.057753816519E+03 DETOT  3.18E-11 tst  1.40E-13 PX  4.51E-07
 TTTTTTTTTTTTTTTTTTTTTTTTTTTTTT DIIS        TELAPSE       71.00 TCPU       68.93
 DIIS TEST: 0.20260E-11 AT SCF   CYCLE  13 - DIIS ACTIVE - HISTORY:    13 CYCLES
 TTTTTTTTTTTTTTTTTTTTTTTTTTTTTT FDIK        TELAPSE       71.59 TCPU       69.52
 INSULATING STATE
 TOP OF VALENCE BANDS -    BAND    160; K   10; EIG -2.4813464E-01 AU
[...]
Note: The following floating-point exceptions are signalling: IEEE_UNDERFLOW_FLAG IEEE_DENORMAL
Note: The following floating-point exceptions are signalling: IEEE_UNDERFLOW_FLAG IEEE_DENORMAL
Note: The following floating-point exceptions are signalling: IEEE_UNDERFLOW_FLAG IEEE_DENORMAL
Note: The following floating-point exceptions are signalling: IEEE_UNDERFLOW_FLAG IEEE_DENORMAL
Note: The following floating-point exceptions are signalling: IEEE_UNDERFLOW_FLAG IEEE_DENORMAL
Note: The following floating-point exceptions are signalling: IEEE_UNDERFLOW_FLAG IEEE_DENORMAL
Note: The following floating-point exceptions are signalling: IEEE_UNDERFLOW_FLAG IEEE_DENORMAL
Note: The following floating-point exceptions are signalling: IEEE_UNDERFLOW_FLAG IEEE_DENORMAL
Note: The following floating-point exceptions are signalling: IEEE_UNDERFLOW_FLAG IEEE_DENORMAL
Note: The following floating-point exceptions are signalling: IEEE_UNDERFLOW_FLAG IEEE_DENORMAL
Note: The following floating-point exceptions are signalling: IEEE_UNDERFLOW_FLAG IEEE_DENORMAL
Note: The following floating-point exceptions are signalling: IEEE_UNDERFLOW_FLAG IEEE_DENORMAL
Note: The following floating-point exceptions are signalling: IEEE_UNDERFLOW_FLAG IEEE_DENORMAL
Note: The following floating-point exceptions are signalling: IEEE_UNDERFLOW_FLAG IEEE_DENORMAL
Note: The following floating-point exceptions are signalling: IEEE_UNDERFLOW_FLAG IEEE_DENORMAL
Note: The following floating-point exceptions are signalling: IEEE_UNDERFLOW_FLAG IEEE_DENORMAL
Note: The following floating-point exceptions are signalling: IEEE_UNDERFLOW_FLAG IEEE_DENORMAL
Note: The following floating-point exceptions are signalling: IEEE_UNDERFLOW_FLAG IEEE_DENORMAL
Note: The following floating-point exceptions are signalling: IEEE_UNDERFLOW_FLAG IEEE_DENORMAL
Note: The following floating-point exceptions are signalling: IEEE_UNDERFLOW_FLAG IEEE_DENORMAL
Note: The following floating-point exceptions are signalling: IEEE_UNDERFLOW_FLAG IEEE_DENORMAL
Note: The following floating-point exceptions are signalling: IEEE_UNDERFLOW_FLAG IEEE_DENORMAL
Note: The following floating-point exceptions are signalling: IEEE_UNDERFLOW_FLAG IEEE_DENORMAL
Note: The following floating-point exceptions are signalling: IEEE_UNDERFLOW_FLAG IEEE_DENORMAL
Note: The following floating-point exceptions are signalling: IEEE_UNDERFLOW_FLAG IEEE_DENORMAL
Note: The following floating-point exceptions are signalling: IEEE_UNDERFLOW_FLAG IEEE_DENORMAL
Note: The following floating-point exceptions are signalling: IEEE_UNDERFLOW_FLAG IEEE_DENORMAL
Note: The following floating-point exceptions are signalling: IEEE_UNDERFLOW_FLAG IEEE_DENORMAL
Note: The following floating-point exceptions are signalling: IEEE_UNDERFLOW_FLAG IEEE_DENORMAL
Note: The following floating-point exceptions are signalling: IEEE_UNDERFLOW_FLAG IEEE_DENORMAL
Note: The following floating-point exceptions are signalling: IEEE_UNDERFLOW_FLAG IEEE_DENORMAL
Note: The following floating-point exceptions are signalling: IEEE_UNDERFLOW_FLAG IEEE_DENORMAL
Note: The following floating-point exceptions are signalling: IEEE_UNDERFLOW_FLAG IEEE_DENORMAL
Note: The following floating-point exceptions are signalling: IEEE_UNDERFLOW_FLAG IEEE_DENORMAL
Note: The following floating-point exceptions are signalling: IEEE_UNDERFLOW_FLAG IEEE_DENORMAL
Note: The following floating-point exceptions are signalling: IEEE_UNDERFLOW_FLAG IEEE_DENORMAL
Note: The following floating-point exceptions are signalling: IEEE_UNDERFLOW_FLAG IEEE_DENORMAL
Note: The following floating-point exceptions are signalling: IEEE_UNDERFLOW_FLAG IEEE_DENORMAL
Note: The following floating-point exceptions are signalling: IEEE_UNDERFLOW_FLAG IEEE_DENORMAL
Note: The following floating-point exceptions are signalling: IEEE_UNDERFLOW_FLAG IEEE_DENORMAL
Note: The following floating-point exceptions are signalling: IEEE_UNDERFLOW_FLAG IEEE_DENORMAL
Note: The following floating-point exceptions are signalling: IEEE_UNDERFLOW_FLAG IEEE_DENORMAL
Note: The following floating-point exceptions are signalling: IEEE_UNDERFLOW_FLAG IEEE_DENORMAL
Note: The following floating-point exceptions are signalling: IEEE_UNDERFLOW_FLAG IEEE_DENORMAL
Note: The following floating-point exceptions are signalling: IEEE_UNDERFLOW_FLAG IEEE_DENORMAL
Note: The following floating-point exceptions are signalling: IEEE_UNDERFLOW_FLAG IEEE_DENORMAL
Note: The following floating-point exceptions are signalling: IEEE_UNDERFLOW_FLAG IEEE_DENORMAL
Note: The following floating-point exceptions are signalling: IEEE_UNDERFLOW_FLAG IEEE_DENORMAL
Note: The following floating-point exceptions are signalling: IEEE_UNDERFLOW_FLAG IEEE_DENORMAL
Note: The following floating-point exceptions are signalling: IEEE_UNDERFLOW_FLAG IEEE_DENORMAL
Note: The following floating-point exceptions are signalling: IEEE_UNDERFLOW_FLAG IEEE_DENORMAL
Note: The following floating-point exceptions are signalling: IEEE_UNDERFLOW_FLAG IEEE_DENORMAL
Note: The following floating-point exceptions are signalling: IEEE_UNDERFLOW_FLAG IEEE_DENORMAL
Note: The following floating-point exceptions are signalling: IEEE_UNDERFLOW_FLAG IEEE_DENORMAL
Note: The following floating-point exceptions are signalling: IEEE_UNDERFLOW_FLAG IEEE_DENORMAL
Note: The following floating-point exceptions are signalling: IEEE_UNDERFLOW_FLAG IEEE_DENORMAL
Note: The following floating-point exceptions are signalling: IEEE_UNDERFLOW_FLAG IEEE_DENORMAL
Note: The following floating-point exceptions are signalling: IEEE_UNDERFLOW_FLAG IEEE_DENORMAL
Note: The following floating-point exceptions are signalling: IEEE_UNDERFLOW_FLAG IEEE_DENORMAL
Note: The following floating-point exceptions are signalling: IEEE_UNDERFLOW_FLAG IEEE_DENORMAL
Note: The following floating-point exceptions are signalling: IEEE_UNDERFLOW_FLAG IEEE_DENORMAL
Note: The following floating-point exceptions are signalling: IEEE_UNDERFLOW_FLAG IEEE_DENORMAL
Note: The following floating-point exceptions are signalling: IEEE_UNDERFLOW_FLAG IEEE_DENORMAL
Note: The following floating-point exceptions are signalling: IEEE_UNDERFLOW_FLAG IEEE_DENORMAL
Note: The following floating-point exceptions are signalling: IEEE_UNDERFLOW_FLAG IEEE_DENORMAL
Note: The following floating-point exceptions are signalling: IEEE_UNDERFLOW_FLAG IEEE_DENORMAL
Note: The following floating-point exceptions are signalling: IEEE_UNDERFLOW_FLAG IEEE_DENORMAL
Note: The following floating-point exceptions are signalling: IEEE_UNDERFLOW_FLAG IEEE_DENORMAL
Note: The following floating-point exceptions are signalling: IEEE_UNDERFLOW_FLAG IEEE_DENORMAL
Note: The following floating-point exceptions are signalling: IEEE_UNDERFLOW_FLAG IEEE_DENORMAL
Note: The following floating-point exceptions are signalling: IEEE_UNDERFLOW_FLAG IEEE_DENORMAL
Note: The following floating-point exceptions are signalling: IEEE_UNDERFLOW_FLAG IEEE_DENORMAL
Note: The following floating-point exceptions are signalling: IEEE_UNDERFLOW_FLAG IEEE_DENORMAL
Note: The following floating-point exceptions are signalling: IEEE_UNDERFLOW_FLAG IEEE_DENORMAL
Note: The following floating-point exceptions are signalling: IEEE_UNDERFLOW_FLAG IEEE_DENORMAL
Note: The following floating-point exceptions are signalling: IEEE_UNDERFLOW_FLAG IEEE_DENORMAL
Note: The following floating-point exceptions are signalling: IEEE_UNDERFLOW_FLAG IEEE_DENORMAL
Note: The following floating-point exceptions are signalling: IEEE_UNDERFLOW_FLAG IEEE_DENORMAL
Note: The following floating-point exceptions are signalling: IEEE_UNDERFLOW_FLAG IEEE_DENORMAL
Note: The following floating-point exceptions are signalling: IEEE_UNDERFLOW_FLAG IEEE_DENORMAL
Note: The following floating-point exceptions are signalling: IEEE_UNDERFLOW_FLAG IEEE_DENORMAL
Note: The following floating-point exceptions are signalling: IEEE_UNDERFLOW_FLAG IEEE_DENORMAL
Note: The following floating-point exceptions are signalling: IEEE_UNDERFLOW_FLAG IEEE_DENORMAL
Note: The following floating-point exceptions are signalling: IEEE_UNDERFLOW_FLAG IEEE_DENORMAL
Note: The following floating-point exceptions are signalling: IEEE_UNDERFLOW_FLAG IEEE_DENORMAL
Note: The following floating-point exceptions are signalling: IEEE_UNDERFLOW_FLAG IEEE_DENORMAL
Note: The following floating-point exceptions are signalling: IEEE_UNDERFLOW_FLAG IEEE_DENORMAL
Note: The following floating-point exceptions are signalling: IEEE_UNDERFLOW_FLAG IEEE_DENORMAL
Note: The following floating-point exceptions are signalling: IEEE_UNDERFLOW_FLAG IEEE_DENORMAL
Note: The following floating-point exceptions are signalling: IEEE_UNDERFLOW_FLAG IEEE_DENORMAL
Note: The following floating-point exceptions are signalling: IEEE_UNDERFLOW_FLAG IEEE_DENORMAL
Note: The following floating-point exceptions are signalling: IEEE_UNDERFLOW_FLAG IEEE_DENORMAL
Note: The following floating-point exceptions are signalling: IEEE_UNDERFLOW_FLAG IEEE_DENORMAL
Note: The following floating-point exceptions are signalling: IEEE_UNDERFLOW_FLAG IEEE_DENORMAL
Note: The following floating-point exceptions are signalling: IEEE_UNDERFLOW_FLAG IEEE_DENORMAL
Note: The following floating-point exceptions are signalling: IEEE_UNDERFLOW_FLAG IEEE_DENORMAL
Note: The following floating-point exceptions are signalling: IEEE_UNDERFLOW_FLAG IEEE_DENORMAL
Note: The following floating-point exceptions are signalling: IEEE_UNDERFLOW_FLAG IEEE_DENORMAL
Note: The following floating-point exceptions are signalling: IEEE_UNDERFLOW_FLAG IEEE_DENORMAL
Note: The following floating-point exceptions are signalling: IEEE_UNDERFLOW_FLAG IEEE_DENORMAL
Note: The following floating-point exceptions are signalling: IEEE_UNDERFLOW_FLAG IEEE_DENORMAL
Note: The following floating-point exceptions are signalling: IEEE_UNDERFLOW_FLAG IEEE_DENORMAL
Note: The following floating-point exceptions are signalling: IEEE_UNDERFLOW_FLAG IEEE_DENORMAL
Note: The following floating-point exceptions are signalling: IEEE_UNDERFLOW_FLAG IEEE_DENORMAL
Note: The following floating-point exceptions are signalling: IEEE_UNDERFLOW_FLAG IEEE_DENORMAL
Note: The following floating-point exceptions are signalling: IEEE_UNDERFLOW_FLAG IEEE_DENORMAL
Note: The following floating-point exceptions are signalling: IEEE_UNDERFLOW_FLAG IEEE_DENORMAL
Note: The following floating-point exceptions are signalling: IEEE_UNDERFLOW_FLAG IEEE_DENORMAL
Note: The following floating-point exceptions are signalling: IEEE_UNDERFLOW_FLAG IEEE_DENORMAL
Note: The following floating-point exceptions are signalling: IEEE_UNDERFLOW_FLAG IEEE_DENORMAL
Note: The following floating-point exceptions are signalling: IEEE_UNDERFLOW_FLAG IEEE_DENORMAL
Note: The following floating-point exceptions are signalling: IEEE_UNDERFLOW_FLAG IEEE_DENORMAL
Note: The following floating-point exceptions are signalling: IEEE_UNDERFLOW_FLAG IEEE_DENORMAL
Note: The following floating-point exceptions are signalling: IEEE_UNDERFLOW_FLAG IEEE_DENORMAL
Note: The following floating-point exceptions are signalling: IEEE_UNDERFLOW_FLAG IEEE_DENORMAL
Note: The following floating-point exceptions are signalling: IEEE_UNDERFLOW_FLAG IEEE_DENORMAL
Note: The following floating-point exceptions are signalling: IEEE_UNDERFLOW_FLAG IEEE_DENORMAL
Note: The following floating-point exceptions are signalling: IEEE_UNDERFLOW_FLAG IEEE_DENORMAL
Note: The following floating-point exceptions are signalling: IEEE_UNDERFLOW_FLAG IEEE_DENORMAL
Note: The following floating-point exceptions are signalling: IEEE_UNDERFLOW_FLAG IEEE_DENORMAL
Note: The following floating-point exceptions are signalling: IEEE_UNDERFLOW_FLAG IEEE_DENORMAL
Note: The following floating-point exceptions are signalling: IEEE_UNDERFLOW_FLAG IEEE_DENORMAL
Note: The following floating-point exceptions are signalling: IEEE_UNDERFLOW_FLAG IEEE_DENORMAL
Note: The following floating-point exceptions are signalling: IEEE_UNDERFLOW_FLAG IEEE_DENORMAL
Note: The following floating-point exceptions are signalling: IEEE_UNDERFLOW_FLAG IEEE_DENORMAL
Note: The following floating-point exceptions are signalling: IEEE_UNDERFLOW_FLAG IEEE_DENORMAL
Note: The following floating-point exceptions are signalling: IEEE_UNDERFLOW_FLAG IEEE_DENORMAL
Note: The following floating-point exceptions are signalling: IEEE_UNDERFLOW_FLAG IEEE_DENORMAL
Note: The following floating-point exceptions are signalling: IEEE_UNDERFLOW_FLAG IEEE_DENORMAL
Note: The following floating-point exceptions are signalling: IEEE_UNDERFLOW_FLAG IEEE_DENORMAL
Note: The following floating-point exceptions are signalling: IEEE_UNDERFLOW_FLAG IEEE_DENORMAL
Note: The following floating-point exceptions are signalling: IEEE_UNDERFLOW_FLAG IEEE_DENORMAL
Note: The following floating-point exceptions are signalling: IEEE_UNDERFLOW_FLAG IEEE_DENORMAL
Note: The following floating-point exceptions are signalling: IEEE_UNDERFLOW_FLAG IEEE_DENORMAL
Note: The following floating-point exceptions are signalling: IEEE_UNDERFLOW_FLAG IEEE_DENORMAL
Note: The following floating-point exceptions are signalling: IEEE_UNDERFLOW_FLAG IEEE_DENORMAL
Note: The following floating-point exceptions are signalling: IEEE_UNDERFLOW_FLAG IEEE_DENORMAL
Note: The following floating-point exceptions are signalling: IEEE_UNDERFLOW_FLAG IEEE_DENORMAL
Note: The following floating-point exceptions are signalling: IEEE_UNDERFLOW_FLAG IEEE_DENORMAL
Note: The following floating-point exceptions are signalling: IEEE_UNDERFLOW_FLAG IEEE_DENORMAL
Note: The following floating-point exceptions are signalling: IEEE_UNDERFLOW_FLAG IEEE_DENORMAL
Note: The following floating-point exceptions are signalling: IEEE_UNDERFLOW_FLAG IEEE_DENORMAL
Note: The following floating-point exceptions are signalling: IEEE_UNDERFLOW_FLAG IEEE_DENORMAL
Note: The following floating-point exceptions are signalling: IEEE_UNDERFLOW_FLAG IEEE_DENORMAL
Note: The following floating-point exceptions are signalling: IEEE_UNDERFLOW_FLAG IEEE_DENORMAL
Note: The following floating-point exceptions are signalling: IEEE_UNDERFLOW_FLAG IEEE_DENORMAL
Note: The following floating-point exceptions are signalling: IEEE_UNDERFLOW_FLAG IEEE_DENORMAL
Note: The following floating-point exceptions are signalling: IEEE_UNDERFLOW_FLAG IEEE_DENORMAL
Note: The following floating-point exceptions are signalling: IEEE_UNDERFLOW_FLAG IEEE_DENORMAL
Note: The following floating-point exceptions are signalling: IEEE_UNDERFLOW_FLAG IEEE_DENORMAL
Note: The following floating-point exceptions are signalling: IEEE_UNDERFLOW_FLAG IEEE_DENORMAL
Note: The following floating-point exceptions are signalling: IEEE_UNDERFLOW_FLAG IEEE_DENORMAL
Note: The following floating-point exceptions are signalling: IEEE_UNDERFLOW_FLAG IEEE_DENORMAL
Note: The following floating-point exceptions are signalling: IEEE_UNDERFLOW_FLAG IEEE_DENORMAL
Note: The following floating-point exceptions are signalling: IEEE_UNDERFLOW_FLAG IEEE_DENORMAL
Note: The following floating-point exceptions are signalling: IEEE_UNDERFLOW_FLAG IEEE_DENORMAL
Note: The following floating-point exceptions are signalling: IEEE_UNDERFLOW_FLAG IEEE_DENORMAL
Note: The following floating-point exceptions are signalling: IEEE_UNDERFLOW_FLAG IEEE_DENORMAL
Note: The following floating-point exceptions are signalling: IEEE_UNDERFLOW_FLAG IEEE_DENORMAL
Note: The following floating-point exceptions are signalling: IEEE_UNDERFLOW_FLAG IEEE_DENORMAL
Note: The following floating-point exceptions are signalling: IEEE_UNDERFLOW_FLAG IEEE_DENORMAL
Note: The following floating-point exceptions are signalling: IEEE_UNDERFLOW_FLAG IEEE_DENORMAL
Note: The following floating-point exceptions are signalling: IEEE_UNDERFLOW_FLAG IEEE_DENORMAL
Note: The following floating-point exceptions are signalling: IEEE_UNDERFLOW_FLAG IEEE_DENORMAL
Note: The following floating-point exceptions are signalling: IEEE_UNDERFLOW_FLAG IEEE_DENORMAL
Note: The following floating-point exceptions are signalling: IEEE_UNDERFLOW_FLAG IEEE_DENORMAL
Note: The following floating-point exceptions are signalling: IEEE_UNDERFLOW_FLAG IEEE_DENORMAL
Note: The following floating-point exceptions are signalling: IEEE_UNDERFLOW_FLAG IEEE_DENORMAL
Note: The following floating-point exceptions are signalling: IEEE_UNDERFLOW_FLAG IEEE_DENORMAL
Note: The following floating-point exceptions are signalling: IEEE_UNDERFLOW_FLAG IEEE_DENORMAL
Note: The following floating-point exceptions are signalling: IEEE_UNDERFLOW_FLAG IEEE_DENORMAL
Note: The following floating-point exceptions are signalling: IEEE_UNDERFLOW_FLAG IEEE_DENORMAL
Note: The following floating-point exceptions are signalling: IEEE_UNDERFLOW_FLAG IEEE_DENORMAL
Note: The following floating-point exceptions are signalling: IEEE_UNDERFLOW_FLAG IEEE_DENORMAL
Note: The following floating-point exceptions are signalling: IEEE_UNDERFLOW_FLAG IEEE_DENORMAL
Note: The following floating-point exceptions are signalling: IEEE_UNDERFLOW_FLAG IEEE_DENORMAL
Note: The following floating-point exceptions are signalling: IEEE_UNDERFLOW_FLAG IEEE_DENORMAL
Note: The following floating-point exceptions are signalling: IEEE_UNDERFLOW_FLAG IEEE_DENORMAL
Note: The following floating-point exceptions are signalling: IEEE_UNDERFLOW_FLAG IEEE_DENORMAL
Note: The following floating-point exceptions are signalling: IEEE_UNDERFLOW_FLAG IEEE_DENORMAL
Note: The following floating-point exceptions are signalling: IEEE_UNDERFLOW_FLAG IEEE_DENORMAL
Note: The following floating-point exceptions are signalling: IEEE_UNDERFLOW_FLAG IEEE_DENORMAL
Note: The following floating-point exceptions are signalling: IEEE_UNDERFLOW_FLAG IEEE_DENORMAL
Note: The following floating-point exceptions are signalling: IEEE_UNDERFLOW_FLAG IEEE_DENORMAL
Note: The following floating-point exceptions are signalling: IEEE_UNDERFLOW_FLAG IEEE_DENORMAL
Note: The following floating-point exceptions are signalling: IEEE_UNDERFLOW_FLAG IEEE_DENORMAL
Note: The following floating-point exceptions are signalling: IEEE_UNDERFLOW_FLAG IEEE_DENORMAL
Note: The following floating-point exceptions are signalling: IEEE_UNDERFLOW_FLAG IEEE_DENORMAL
Note: The following floating-point exceptions are signalling: IEEE_UNDERFLOW_FLAG IEEE_DENORMAL
Note: The following floating-point exceptions are signalling: IEEE_UNDERFLOW_FLAG IEEE_DENORMAL
Note: The following floating-point exceptions are signalling: IEEE_UNDERFLOW_FLAG IEEE_DENORMAL
Note: The following floating-point exceptions are signalling: IEEE_UNDERFLOW_FLAG IEEE_DENORMAL
Note: The following floating-point exceptions are signalling: IEEE_UNDERFLOW_FLAG IEEE_DENORMAL
Note: The following floating-point exceptions are signalling: IEEE_UNDERFLOW_FLAG IEEE_DENORMAL
Note: The following floating-point exceptions are signalling: IEEE_UNDERFLOW_FLAG IEEE_DENORMAL
Note: The following floating-point exceptions are signalling: IEEE_UNDERFLOW_FLAG IEEE_DENORMAL
Note: The following floating-point exceptions are signalling: IEEE_UNDERFLOW_FLAG IEEE_DENORMAL
Note: The following floating-point exceptions are signalling: IEEE_UNDERFLOW_FLAG IEEE_DENORMAL
Note: The following floating-point exceptions are signalling: IEEE_UNDERFLOW_FLAG IEEE_DENORMAL
Note: The following floating-point exceptions are signalling: IEEE_UNDERFLOW_FLAG IEEE_DENORMAL
Note: The following floating-point exceptions are signalling: IEEE_UNDERFLOW_FLAG IEEE_DENORMAL
Note: The following floating-point exceptions are signalling: IEEE_UNDERFLOW_FLAG IEEE_DENORMAL
Note: The following floating-point exceptions are signalling: IEEE_UNDERFLOW_FLAG IEEE_DENORMAL
Note: The following floating-point exceptions are signalling: IEEE_UNDERFLOW_FLAG IEEE_DENORMAL
Note: The following floating-point exceptions are signalling: IEEE_UNDERFLOW_FLAG IEEE_DENORMAL
Note: The following floating-point exceptions are signalling: IEEE_UNDERFLOW_FLAG IEEE_DENORMAL
Note: The following floating-point exceptions are signalling: IEEE_UNDERFLOW_FLAG IEEE_DENORMAL
Note: The following floating-point exceptions are signalling: IEEE_UNDERFLOW_FLAG IEEE_DENORMAL
