Lmod has detected the following error: The following module(s) are unknown:
"epcc-job-env"

Please check the spelling or version number. Also try "module spider ..."
It is also possible your cache file is out-of-date; it may help to try:
  $ module --ignore-cache load "epcc-job-env"

Also make sure that all modulefiles written in TCL start with the string
#%Module




Warning: You have enabled access to software packages installed
by external parties on ARCHER2 or those that are not fully-supported.
The ARCHER2 CSE service does not test these packages. The service desk
will make reasonable efforts to assist with questions on the use of
these packages but some issues may not be able to be resolved by the
service and they may direct you to seek help from external parties.


         512 PROCESSORS WORKING

         
 *******************************************************************************
 *                                                                             *
 *                               CRYSTAL17                                     *
 *                      public : 1.0.2 - March 1st, 2018 STFC/Archer2 build    *
 *                       HTTP://WWW.CRYSTAL.UNITO.IT                           *
 *                                                                             *
 *                              MAIN AUTHORS                                   *
 *                                                                             *
 *  R. DOVESI(1,11), V.R. SAUNDERS(2), C. ROETTI(1,11), R. ORLANDO(1,11),      *
 *  C.M. ZICOVICH-WILSON(1,3), F. PASCALE(4), B. CIVALLERI(1,11),              *
 *  K. DOLL(5), N.M. HARRISON(2,6), I.J. BUSH(7), Ph. D'ARCO(8),               *
 *  M. LLUNELL(9), M. CAUSA'(10), Y. NOEL(8), L. MASCHIO(1,11), A. ERBA(1,11)  *
 *  M. RE'RAT(14), S. CASASSA(1,11)                                            *
 *                                                                             *
 *        CONTRIBUTIONS TO THE CODE HAVE ALSO BEEN GIVEN BY                    *
 *                                                                             *
 *  M. FERRABONE(1,11), M. DE LA PIERRE(1,11), M. FERRERO(1,11),               *
 *  J. BAIMA(1,11), E. ALBANESE(1,11), M.F. PEINTINGER(12), R. BAST(13),       *
 *  B. KIRTMAN(15), V. LACIVITA(1,11), R. DEMICHELIS(1,16)                     *
 *  G. BRANDEBURG(17), S. SALUSTRO(1,11), G. SANSONE(1,11)                     *
 *  M.T. RUGGIERO(18)                                                          *
 *                                                                             *
 * (1) THEORETICAL CHEMISTRY GROUP - UNIVERSITA' DI TORINO - TORINO (ITALY)    *
 * (2) COMPUTATIONAL SCIENCE & ENGINEERING DEPARTMENT - STFC DARESBURY (UK)    *
 * (3) UNIVERSIDAD AUTONOMA DEL ESTADO DE MORELOS - CUERNAVACA (MEXICO)        *
 * (4) UNIVERSITE' DE LORRAINE - NANCY (FRANCE)                                *
 * (5) UNIVERSITAET STUTTGART- STUTTGART (GERMANY)                             *
 * (6) IMPERIAL COLLEGE - LONDON (UK)                                          *
 * (7) OXFORD E-RESEARCH CENTRE - OXFORD (UK)                                  *
 * (8) UPMC - SORBONNE UNIVERSITES - PARIS (FRANCE)                            *
 * (9) UNIVERSIDAD DE BARCELONA - BARCELONA (SPAIN)                            *
 *(10) UNIVERSITA' DI NAPOLI "FEDERICO II" - NAPOLI (ITALY)                    *
 *(11) NIS - NANOSTRUCTURED INTERFACES AND SURFACES - TORINO (ITALY)           *
 *(12) MPI FUER CHEMISCHE ENERGIEKONVERSION - MUELHEIM AN DER RUHR (GERMANY)   *
 *(13) UNIVERSITY OF TROMSO - TROMSO (NORWAY)                                  *
 *(14) UNIVERSITE' DE PAU ET DES PAYS DE L'ADOUR - PAU (FRANCE)                *
 *(15) UNIVERSITY OF CALIFORNIA SANTA BARBARA - SANTA BARBARA (USA)            *
 *(16) CURTIN UNIVERSITY - PERTH (AUSTRALIA)                                   *
 *(17) UNIVERSITY COLLEGE LONDON - LONDON (UK)                                 *
 *(18) CAMBRIDGE UNIVERSITY - CAMBRIDGE (UK)                                   *
 *                                                                             *
 *******************************************************************************
 EEEEEEEEEE STARTING  DATE 05 03 2022 TIME 11:43:55.5
 F1 vol step5 freq - PBEh-3c                                                     

 GEOMETRY INPUT FROM EXTERNAL FILE (FORTRAN UNIT 34)
 3D - CRYSTAL 

 *******************************************************************************
 LATTICE PARAMETERS  (ANGSTROMS AND DEGREES) - PRIMITIVE CELL
       A          B          C        ALPHA      BETA     GAMMA        VOLUME
    7.22422    9.43875   12.79954    90.00000 116.85591  90.00000    778.638063

 NUMBER OF IRREDUCIBLE ATOMS IN THE CELL:   20

 CARTESIAN COORDINATES (ANGSTROM) - IRREDUCIBLE ATOMS AND SYMMETRY RELATED

 AT.IRR.  AT  AT.N.          X                   Y                   Z
     1     1     8    2.769991562002E+00 -7.110667585340E-01  2.421035312285E+00
     1     2     8    1.589563852141E+00  4.008308764479E+00  3.268343647695E+00
     1     3     8   -2.769991562002E+00  7.110667585340E-01 -2.421035312285E+00
     1     4     8   -1.589563852141E+00 -4.008308764479E+00 -3.268343647695E+00
     5     5     8    7.798029897680E-01  4.754883983895E+00 -2.267516720710E+00
     5     6     8    2.084786063213E+00  3.550846088200E-02 -3.455348321387E+00
     5     7     8   -7.798029897680E-01 -4.754883983895E+00  2.267516720710E+00
     5     8     8   -2.084786063213E+00 -3.550846088200E-02  3.455348321387E+00
     9     9     7    2.963561450441E+00 -4.293457706273E+00 -1.826385337254E+00
     9    10     7   -9.897239746000E-02  4.259178167400E-01 -3.896479704843E+00
     9    11     7   -2.963561450441E+00  4.293457706273E+00  1.826385337254E+00
     9    12     7    9.897239746000E-02 -4.259178167400E-01  3.896479704843E+00
    13    13     6    2.867883528895E+00 -3.412997654526E+00 -7.327292545620E-01
    13    14     6   -3.294475914000E-03  1.306377868487E+00 -4.990135787535E+00
    13    15     6   -2.867883528895E+00  3.412997654526E+00  7.327292545620E-01
    13    16     6    3.294475914000E-03 -1.306377868487E+00  4.990135787535E+00
    17    17     6    1.804961170424E+00 -3.393097026855E+00  1.645756988870E-01
    17    18     6    1.059627882557E+00  1.326278496158E+00 -5.887440740984E+00
    17    19     6   -1.804961170424E+00  3.393097026855E+00 -1.645756988870E-01
    17    20     6   -1.059627882557E+00 -1.326278496158E+00  5.887440740984E+00
    21    21     6    1.792438934990E+00 -2.487364820279E+00  1.215082049039E+00
    21    22     6    2.567116479153E+00  2.232010702734E+00  4.474296910941E+00
    21    23     6   -1.792438934990E+00  2.487364820279E+00 -1.215082049039E+00
    21    24     6   -2.567116479153E+00 -2.232010702734E+00 -4.474296910941E+00
    25    25     6    2.841030247901E+00 -1.591218149238E+00  1.401838569054E+00
    25    26     6    1.518525166242E+00  3.128157373775E+00  4.287540390926E+00
    25    27     6   -2.841030247901E+00  1.591218149238E+00 -1.401838569054E+00
    25    28     6   -1.518525166242E+00 -3.128157373775E+00 -4.287540390926E+00
    29    29     6   -3.306525169872E+00 -1.631567663198E+00  5.532802647210E-01
    29    30     6    4.419361168910E-01  3.087807859815E+00  5.169584777376E+00
    29    31     6    3.306525169872E+00  1.631567663198E+00 -5.532802647210E-01
    29    32     6   -4.419361168910E-01 -3.087807859815E+00 -5.169584777376E+00
    33    33     6   -3.299884312335E+00 -2.529246680286E+00 -4.990884440380E-01
    33    34     6   -1.059671101808E+00  2.190128842727E+00 -5.190290515942E+00
    33    35     6    3.299884312335E+00  2.529246680286E+00  4.990884440380E-01
    33    36     6    1.059671101808E+00 -2.190128842727E+00  5.190290515942E+00
    37    37     6    1.970357128606E+00  4.594098601673E+00 -2.538987119674E+00
    37    38     6    8.942319243750E-01 -1.252769213410E-01 -3.183877922423E+00
    37    39     6   -1.970357128606E+00 -4.594098601673E+00  2.538987119674E+00
    37    40     6   -8.942319243750E-01  1.252769213410E-01  3.183877922423E+00
    41    41     6    2.409147161385E+00  3.742648599863E+00 -3.697651299460E+00
    41    42     6    4.554418915960E-01 -9.767269231500E-01 -2.025213742637E+00
    41    43     6   -2.409147161385E+00 -3.742648599863E+00  3.697651299460E+00
    41    44     6   -4.554418915960E-01  9.767269231500E-01  2.025213742637E+00
    45    45     1    9.798540197800E-01 -4.079201281181E+00  6.614048352100E-02
    45    46     1    1.884735033202E+00  6.401742418330E-01 -5.789005525618E+00
    45    47     1   -9.798540197800E-01  4.079201281181E+00 -6.614048352100E-02
    45    48     1   -1.884735033202E+00 -6.401742418330E-01  5.789005525618E+00
    49    49     1    9.534139307450E-01 -2.490878947278E+00  1.899780678192E+00
    49    50     1    3.406141483398E+00  2.228496575735E+00  3.789598281788E+00
    49    51     1   -9.534139307450E-01  2.490878947278E+00 -1.899780678192E+00
    49    52     1   -3.406141483398E+00 -2.228496575735E+00 -3.789598281788E+00
    53    53     1   -2.475825030433E+00 -9.479829861690E-01  6.695220278540E-01
    53    54     1   -3.887640225480E-01  3.771392536844E+00  5.053343014243E+00
    53    55     1    2.475825030433E+00  9.479829861690E-01 -6.695220278540E-01
    53    56     1    3.887640225480E-01 -3.771392536844E+00 -5.053343014243E+00
    57    57     1   -2.452879642761E+00 -2.541938356352E+00 -1.173759218357E+00
    57    58     1   -1.906675771382E+00  2.177437166661E+00 -4.515619741623E+00
    57    59     1    2.452879642761E+00  2.541938356352E+00  1.173759218357E+00
    57    60     1    1.906675771382E+00 -2.177437166661E+00  4.515619741623E+00
    61    61     1   -3.573975031936E+00 -3.423429176510E-01  2.690598390059E+00
    61    62     1    7.093859789540E-01  4.377032605362E+00  3.032266652037E+00
    61    63     1    3.573975031936E+00  3.423429176510E-01 -2.690598390059E+00
    61    64     1   -7.093859789540E-01 -4.377032605362E+00 -3.032266652037E+00
    65    65     1   -3.320882736537E+00 -4.442060679383E+00 -2.140037311504E+00
    65    66     1   -1.038672677606E+00  2.773148436310E-01 -3.549341648476E+00
    65    67     1    3.320882736537E+00  4.442060679383E+00  2.140037311504E+00
    65    68     1    1.038672677606E+00 -2.773148436310E-01  3.549341648476E+00
    69    69     1    1.766238081553E+00  3.916131605230E+00 -4.559207239588E+00
    69    70     1    1.098350971429E+00 -8.032439177830E-01 -1.163657802509E+00
    69    71     1   -1.766238081553E+00 -3.916131605230E+00  4.559207239588E+00
    69    72     1   -1.098350971429E+00  8.032439177830E-01  1.163657802509E+00
    73    73     1    3.445167475604E+00  3.910754321953E+00 -3.985856291676E+00
    73    74     1   -5.805784226230E-01 -8.086212010610E-01 -1.737008750421E+00
    73    75     1   -3.445167475604E+00 -3.910754321953E+00  3.985856291676E+00
    73    76     1    5.805784226230E-01  8.086212010610E-01  1.737008750421E+00
    77    77     1    2.298443212508E+00  2.689515577211E+00 -3.440735613450E+00
    77    78     1    5.661458404730E-01 -2.029859945802E+00 -2.282129428646E+00
    77    79     1   -2.298443212508E+00 -2.689515577211E+00  3.440735613450E+00
    77    80     1   -5.661458404730E-01  2.029859945802E+00  2.282129428646E+00

 SPACE  GROUP  N.                     :   14
 NUMBER OF SYMMETRY OPERATORS         :    4
 *******************************************************************************
 LATTICE PARAMETERS (ANGSTROMS AND DEGREES) - BOHR = 0.5291772083 ANGSTROM
 PRIMITIVE CELL - CENTRING CODE 1/0 VOLUME=   778.638063 - DENSITY  1.289 g/cm^3
         A              B              C           ALPHA      BETA       GAMMA 
     7.22422208     9.43875105    12.79953979    90.000000 116.855909  90.000000
 *******************************************************************************
 ATOMS IN THE ASYMMETRIC UNIT   20 - ATOMS IN THE UNIT CELL:   80
     ATOM                 X/A                 Y/B                 Z/C    
 *******************************************************************************
      1 T   8 O    -4.475325370430E-01 -7.533483562246E-02  2.131393336353E-01
      2 F   8 O     4.475325370432E-01  4.246651643773E-01  2.868606663644E-01
      3 F   8 O     4.475325370430E-01  7.533483562246E-02 -2.131393336353E-01
      4 F   8 O    -4.475325370432E-01 -4.246651643773E-01 -2.868606663644E-01
      5 T   8 O    -4.928363811801E-02 -4.962380127724E-01 -1.982544599576E-01
      6 F   8 O     4.928363811836E-02  3.761987227848E-03 -3.017455400422E-01
      7 F   8 O     4.928363811801E-02  4.962380127724E-01  1.982544599576E-01
      8 F   8 O    -4.928363811836E-02 -3.761987227848E-03  3.017455400422E-01
      9 T   7 N     2.843419621308E-01 -4.548756170530E-01 -1.587372605850E-01
     10 F   7 N    -2.843419621305E-01  4.512438294674E-02 -3.412627394148E-01
     11 F   7 N    -2.843419621308E-01  4.548756170530E-01  1.587372605850E-01
     12 F   7 N     2.843419621305E-01 -4.512438294674E-02  3.412627394148E-01
     13 T   6 C     3.470212099149E-01 -3.615942022289E-01 -6.300243571409E-02
     14 F   6 C    -3.470212099145E-01  1.384057977709E-01 -4.369975642856E-01
     15 F   6 C    -3.470212099149E-01  3.615942022289E-01  6.300243571409E-02
     16 F   6 C     3.470212099145E-01 -1.384057977709E-01  4.369975642856E-01
     17 T   6 C     2.618620108713E-01 -3.594858059406E-01  1.514489948750E-02
     18 F   6 C    -2.618620108709E-01  1.405141940592E-01  4.848551005128E-01
     19 F   6 C    -2.618620108713E-01  3.594858059406E-01 -1.514489948750E-02
     20 F   6 C     2.618620108709E-01 -1.405141940592E-01 -4.848551005128E-01
     21 T   6 C     3.330820869052E-01 -2.635269018272E-01  1.071347702708E-01
     22 F   6 C    -3.330820869050E-01  2.364730981725E-01  3.928652297289E-01
     23 F   6 C    -3.330820869052E-01  2.635269018272E-01 -1.071347702708E-01
     24 F   6 C     3.330820869050E-01 -2.364730981725E-01 -3.928652297289E-01
     25 T   6 C     4.915407935116E-01 -1.685835489757E-01  1.239150612495E-01
     26 F   6 C    -4.915407935114E-01  3.314164510241E-01  3.760849387502E-01
     27 F   6 C    -4.915407935116E-01  1.685835489757E-01 -1.239150612495E-01
     28 F   6 C     4.915407935114E-01 -3.314164510241E-01 -3.760849387502E-01
     29 T   6 C    -4.203439564484E-01 -1.728584274806E-01  4.710967221065E-02
     30 F   6 C     4.203439564480E-01  3.271415725191E-01  4.528903277891E-01
     31 F   6 C     4.203439564484E-01  1.728584274806E-01 -4.710967221065E-02
     32 F   6 C    -4.203439564480E-01 -3.271415725191E-01 -4.528903277891E-01
     33 T   6 C    -4.925093942666E-01 -2.679641266044E-01 -4.504567644569E-02
     34 F   6 C     4.925093942664E-01  2.320358733954E-01 -4.549543235540E-01
     35 F   6 C     4.925093942666E-01  2.679641266044E-01  4.504567644569E-02
     36 F   6 C    -4.925093942664E-01 -2.320358733954E-01  4.549543235540E-01
     37 T   6 C     9.704814585745E-02  4.867273836622E-01 -2.215443959309E-01
     38 F   6 C    -9.704814585711E-02 -1.327261633770E-02 -2.784556040688E-01
     39 F   6 C    -9.704814585745E-02 -4.867273836622E-01  2.215443959309E-01
     40 F   6 C     9.704814585711E-02  1.327261633770E-02  2.784556040688E-01
     41 T   6 C     7.745974094649E-02  3.965194739867E-01 -3.228328336446E-01
     42 F   6 C    -7.745974094614E-02 -1.034805260131E-01 -1.771671663551E-01
     43 F   6 C    -7.745974094649E-02 -3.965194739867E-01  3.228328336446E-01
     44 F   6 C     7.745974094614E-02  1.034805260131E-01  1.771671663551E-01
     45 T   1 H     1.405448757829E-01 -4.321759585869E-01  6.189800060926E-03
     46 F   1 H    -1.405448757824E-01  6.782404141301E-02  4.938101999393E-01
     47 F   1 H    -1.405448757829E-01  4.321759585869E-01 -6.189800060926E-03
     48 F   1 H     1.405448757824E-01 -6.782404141301E-02 -4.938101999393E-01
     49 T   1 H     2.642224138598E-01 -2.638992103013E-01  1.667546270617E-01
     50 F   1 H    -2.642224138596E-01  2.361007896985E-01  3.332453729380E-01
     51 F   1 H    -2.642224138598E-01  2.638992103013E-01 -1.667546270617E-01
     52 F   1 H     2.642224138596E-01 -2.361007896985E-01 -3.332453729380E-01
     53 T   1 H    -2.970141512640E-01 -1.004352145264E-01  5.762639715797E-02
     54 F   1 H     2.970141512637E-01  3.995647854734E-01  4.423736028418E-01
     55 F   1 H     2.970141512640E-01  1.004352145264E-01 -5.762639715797E-02
     56 F   1 H    -2.970141512637E-01 -3.995647854734E-01 -4.423736028418E-01
     57 T   1 H    -4.218461367804E-01 -2.693087617160E-01 -1.037841346943E-01
     58 F   1 H     4.218461367802E-01  2.306912382838E-01 -3.962158653053E-01
     59 F   1 H     4.218461367804E-01  2.693087617160E-01  1.037841346943E-01
     60 F   1 H    -4.218461367802E-01 -2.306912382838E-01  3.962158653053E-01
     61 T   1 H    -3.090153264459E-01 -3.626993825576E-02  2.341703550359E-01
     62 F   1 H     3.090153264453E-01  4.637300617440E-01  2.658296449637E-01
     63 F   1 H     3.090153264459E-01  3.626993825576E-02 -2.341703550359E-01
     64 F   1 H    -3.090153264453E-01 -4.637300617440E-01 -2.658296449637E-01
     65 T   1 H     3.906135155376E-01 -4.706195404159E-01 -1.887553927509E-01
     66 F   1 H    -3.906135155377E-01  2.938045958397E-02 -3.112446072488E-01
     67 F   1 H    -3.906135155376E-01  4.706195404159E-01  1.887553927509E-01
     68 F   1 H     3.906135155377E-01 -2.938045958397E-02  3.112446072488E-01
     69 T   1 H    -7.157663751296E-02  4.148993427342E-01 -3.985419913970E-01
     70 F   1 H     7.157663751344E-02 -8.510065726554E-02 -1.014580086028E-01
     71 F   1 H     7.157663751296E-02 -4.148993427342E-01  3.985419913970E-01
     72 F   1 H    -7.157663751344E-02  8.510065726554E-02  1.014580086028E-01
     73 T   1 H     2.011882648416E-01  4.143296398942E-01 -3.476509803784E-01
     74 F   1 H    -2.011882648412E-01 -8.567036010565E-02 -1.523490196213E-01
     75 F   1 H    -2.011882648416E-01 -4.143296398942E-01  3.476509803784E-01
     76 F   1 H     2.011882648412E-01  8.567036010565E-02  1.523490196213E-01
     77 T   1 H     7.994269487458E-02  2.849440105047E-01 -3.003791475522E-01
     78 F   1 H    -7.994269487417E-02 -2.150559894951E-01 -1.996208524474E-01
     79 F   1 H    -7.994269487458E-02 -2.849440105047E-01  3.003791475522E-01
     80 F   1 H     7.994269487417E-02  2.150559894951E-01  1.996208524474E-01

 T = ATOM BELONGING TO THE ASYMMETRIC UNIT
 *******************************************************************************
 * GEOMETRY EDITING - INPUT COORDINATES ARE GIVEN IN ANGSTROM         
 *******************************************************************************

 GEOMETRY NOW FULLY CONSISTENT WITH THE GROUP

 FRQFRQFRQFRQFRQFRQFRQFRQFRQFRQFRQFRQFRQFRQFRQFRQFRQFRQFRQFRQFRQFRQFRQFRQFRQFRQ

                       FREQUENCY CALCULATION

 INFORMATION **** INPFREQ ****  PRINTING OF EIGENVECTORS
 INFORMATION **** INPFREQ **** NEW DEFAULT - IMPOSING ECKART CONDITIONS TO THE HESSIAN

 GCALCO - MAX INDICES DIRECT LATTICE VECTOR    20    14    11
 NO.OF VECTORS CREATED 6999 STARS 1868 RMAX   206.28866 BOHR

 GEOMETRY FOR WAVE FUNCTION - DIMENSIONALITY OF THE SYSTEM    3
 (NON PERIODIC DIRECTION: LATTICE PARAMETER FORMALLY SET TO 500)
 *******************************************************************************
 LATTICE PARAMETERS (ANGSTROMS AND DEGREES) - BOHR = 0.5291772083 ANGSTROM
 PRIMITIVE CELL - CENTRING CODE 1/0 VOLUME=   778.638063 - DENSITY  1.289 g/cm^3
         A              B              C           ALPHA      BETA       GAMMA 
     7.22422208     9.43875105    12.79953979    90.000000 116.855909  90.000000
 *******************************************************************************
 ATOMS IN THE ASYMMETRIC UNIT   20 - ATOMS IN THE UNIT CELL:   80
     ATOM                 X/A                 Y/B                 Z/C    
 *******************************************************************************
      1 T   8 O    -4.475325370430E-01 -7.533483562246E-02  2.131393336353E-01
      2 F   8 O     4.475325370430E-01  4.246651643770E-01  2.868606663647E-01
      3 F   8 O     4.475325370430E-01  7.533483562246E-02 -2.131393336353E-01
      4 F   8 O    -4.475325370430E-01 -4.246651643781E-01 -2.868606663647E-01
      5 T   8 O    -4.928363811801E-02 -4.962380127724E-01 -1.982544599576E-01
      6 F   8 O     4.928363811801E-02  3.761987227106E-03 -3.017455400424E-01
      7 F   8 O     4.928363811801E-02  4.962380127724E-01  1.982544599576E-01
      8 F   8 O    -4.928363811801E-02 -3.761987228166E-03  3.017455400424E-01
      9 T   7 N     2.843419621308E-01 -4.548756170530E-01 -1.587372605850E-01
     10 F   7 N    -2.843419621308E-01  4.512438294642E-02 -3.412627394150E-01
     11 F   7 N    -2.843419621308E-01  4.548756170530E-01  1.587372605850E-01
     12 F   7 N     2.843419621308E-01 -4.512438294748E-02  3.412627394150E-01
     13 T   6 C     3.470212099149E-01 -3.615942022289E-01 -6.300243571409E-02
     14 F   6 C    -3.470212099149E-01  1.384057977706E-01 -4.369975642859E-01
     15 F   6 C    -3.470212099149E-01  3.615942022289E-01  6.300243571409E-02
     16 F   6 C     3.470212099149E-01 -1.384057977717E-01  4.369975642859E-01
     17 T   6 C     2.618620108713E-01 -3.594858059406E-01  1.514489948750E-02
     18 F   6 C    -2.618620108713E-01  1.405141940588E-01  4.848551005125E-01
     19 F   6 C    -2.618620108713E-01  3.594858059406E-01 -1.514489948750E-02
     20 F   6 C     2.618620108713E-01 -1.405141940599E-01 -4.848551005125E-01
     21 T   6 C     3.330820869052E-01 -2.635269018272E-01  1.071347702708E-01
     22 F   6 C    -3.330820869052E-01  2.364730981722E-01  3.928652297292E-01
     23 F   6 C    -3.330820869052E-01  2.635269018272E-01 -1.071347702708E-01
     24 F   6 C     3.330820869052E-01 -2.364730981733E-01 -3.928652297292E-01
     25 T   6 C     4.915407935116E-01 -1.685835489757E-01  1.239150612495E-01
     26 F   6 C    -4.915407935116E-01  3.314164510238E-01  3.760849387505E-01
     27 F   6 C    -4.915407935116E-01  1.685835489757E-01 -1.239150612495E-01
     28 F   6 C     4.915407935116E-01 -3.314164510248E-01 -3.760849387505E-01
     29 T   6 C    -4.203439564484E-01 -1.728584274806E-01  4.710967221065E-02
     30 F   6 C     4.203439564484E-01  3.271415725188E-01  4.528903277894E-01
     31 F   6 C     4.203439564484E-01  1.728584274806E-01 -4.710967221065E-02
     32 F   6 C    -4.203439564484E-01 -3.271415725199E-01 -4.528903277894E-01
     33 T   6 C    -4.925093942666E-01 -2.679641266044E-01 -4.504567644569E-02
     34 F   6 C     4.925093942666E-01  2.320358733950E-01 -4.549543235543E-01
     35 F   6 C     4.925093942666E-01  2.679641266044E-01  4.504567644569E-02
     36 F   6 C    -4.925093942666E-01 -2.320358733961E-01  4.549543235543E-01
     37 T   6 C     9.704814585745E-02  4.867273836622E-01 -2.215443959309E-01
     38 F   6 C    -9.704814585745E-02 -1.327261633833E-02 -2.784556040691E-01
     39 F   6 C    -9.704814585745E-02 -4.867273836622E-01  2.215443959309E-01
     40 F   6 C     9.704814585745E-02  1.327261633727E-02  2.784556040691E-01
     41 T   6 C     7.745974094649E-02  3.965194739867E-01 -3.228328336446E-01
     42 F   6 C    -7.745974094649E-02 -1.034805260139E-01 -1.771671663554E-01
     43 F   6 C    -7.745974094649E-02 -3.965194739867E-01  3.228328336446E-01
     44 F   6 C     7.745974094649E-02  1.034805260128E-01  1.771671663554E-01
     45 T   1 H     1.405448757829E-01 -4.321759585869E-01  6.189800060926E-03
     46 F   1 H    -1.405448757829E-01  6.782404141258E-02  4.938101999391E-01
     47 F   1 H    -1.405448757829E-01  4.321759585869E-01 -6.189800060926E-03
     48 F   1 H     1.405448757829E-01 -6.782404141364E-02 -4.938101999391E-01
     49 T   1 H     2.642224138598E-01 -2.638992103013E-01  1.667546270617E-01
     50 F   1 H    -2.642224138598E-01  2.361007896982E-01  3.332453729383E-01
     51 F   1 H    -2.642224138598E-01  2.638992103013E-01 -1.667546270617E-01
     52 F   1 H     2.642224138598E-01 -2.361007896992E-01 -3.332453729383E-01
     53 T   1 H    -2.970141512640E-01 -1.004352145264E-01  5.762639715797E-02
     54 F   1 H     2.970141512640E-01  3.995647854731E-01  4.423736028420E-01
     55 F   1 H     2.970141512640E-01  1.004352145264E-01 -5.762639715797E-02
     56 F   1 H    -2.970141512640E-01 -3.995647854742E-01 -4.423736028420E-01
     57 T   1 H    -4.218461367804E-01 -2.693087617160E-01 -1.037841346943E-01
     58 F   1 H     4.218461367804E-01  2.306912382835E-01 -3.962158653057E-01
     59 F   1 H     4.218461367804E-01  2.693087617160E-01  1.037841346943E-01
     60 F   1 H    -4.218461367804E-01 -2.306912382845E-01  3.962158653057E-01
     61 T   1 H    -3.090153264459E-01 -3.626993825576E-02  2.341703550359E-01
     62 F   1 H     3.090153264459E-01  4.637300617437E-01  2.658296449641E-01
     63 F   1 H     3.090153264459E-01  3.626993825576E-02 -2.341703550359E-01
     64 F   1 H    -3.090153264459E-01 -4.637300617448E-01 -2.658296449641E-01
     65 T   1 H     3.906135155376E-01 -4.706195404159E-01 -1.887553927509E-01
     66 F   1 H    -3.906135155376E-01  2.938045958354E-02 -3.112446072491E-01
     67 F   1 H    -3.906135155376E-01  4.706195404159E-01  1.887553927509E-01
     68 F   1 H     3.906135155376E-01 -2.938045958460E-02  3.112446072491E-01
     69 T   1 H    -7.157663751296E-02  4.148993427342E-01 -3.985419913970E-01
     70 F   1 H     7.157663751296E-02 -8.510065726629E-02 -1.014580086030E-01
     71 F   1 H     7.157663751296E-02 -4.148993427342E-01  3.985419913970E-01
     72 F   1 H    -7.157663751296E-02  8.510065726523E-02  1.014580086030E-01
     73 T   1 H     2.011882648416E-01  4.143296398942E-01 -3.476509803784E-01
     74 F   1 H    -2.011882648416E-01 -8.567036010629E-02 -1.523490196216E-01
     75 F   1 H    -2.011882648416E-01 -4.143296398942E-01  3.476509803784E-01
     76 F   1 H     2.011882648416E-01  8.567036010523E-02  1.523490196216E-01
     77 T   1 H     7.994269487458E-02  2.849440105047E-01 -3.003791475522E-01
     78 F   1 H    -7.994269487458E-02 -2.150559894959E-01 -1.996208524478E-01
     79 F   1 H    -7.994269487458E-02 -2.849440105047E-01  3.003791475522E-01
     80 F   1 H     7.994269487458E-02  2.150559894948E-01  1.996208524478E-01

 T = ATOM BELONGING TO THE ASYMMETRIC UNIT

 ****    4 SYMMOPS - TRANSLATORS IN FRACTIONAL UNITS
 **** MATRICES AND TRANSLATORS IN THE CRYSTALLOGRAPHIC REFERENCE FRAME
   V INV                    ROTATION MATRICES                   TRANSLATORS
   1   1  1.00  0.00  0.00  0.00  1.00  0.00  0.00  0.00  1.00  0.00  0.00  0.00
   2   2 -1.00  0.00 -0.00  0.00  1.00  0.00 -0.00  0.00 -1.00 -0.00  0.50  0.50
   3   3 -1.00  0.00 -0.00 -0.00 -1.00  0.00 -0.00 -0.00 -1.00  0.00  0.00  0.00
   4   4  1.00 -0.00  0.00 -0.00 -1.00 -0.00  0.00 -0.00  1.00 -0.00  0.50  0.50

 DIRECT LATTICE VECTORS CARTESIAN COMPONENTS (ANGSTROM)
          X                    Y                    Z
   0.722414446712E+01   0.444113879099E-15  -0.334860821165E-01
  -0.281664050861E-17   0.943875104603E+01  -0.266223979145E-17
  -0.572917810596E+01   0.787883346967E-15   0.114457300842E+02


 CARTESIAN COORDINATES - PRIMITIVE CELL
 *******************************************************************************
 *      ATOM          X(ANGSTROM)         Y(ANGSTROM)         Z(ANGSTROM)
 *******************************************************************************
    1     8 O     2.769991562002E+00 -7.110667585340E-01  2.421035312285E+00
    2     8 O     1.589563852138E+00  4.008308764476E+00  3.268343647699E+00
    3     8 O    -2.769991562002E+00  7.110667585340E-01 -2.421035312285E+00
    4     8 O    -1.589563852138E+00 -4.008308764486E+00 -3.268343647698E+00
    5     8 O     7.798029897680E-01  4.754883983895E+00 -2.267516720710E+00
    6     8 O     2.084786063212E+00  3.550846087500E-02 -3.455348321390E+00
    7     8 O    -7.798029897680E-01 -4.754883983895E+00  2.267516720710E+00
    8     8 O    -2.084786063212E+00 -3.550846088500E-02  3.455348321390E+00
    9     7 N     2.963561450441E+00 -4.293457706273E+00 -1.826385337254E+00
   10     7 N    -9.897239746100E-02  4.259178167370E-01 -3.896479704846E+00
   11     7 N    -2.963561450441E+00  4.293457706273E+00  1.826385337254E+00
   12     7 N     9.897239746100E-02 -4.259178167470E-01  3.896479704846E+00
   13     6 C     2.867883528895E+00 -3.412997654526E+00 -7.327292545620E-01
   14     6 C    -3.294475915001E-03  1.306377868484E+00 -4.990135787538E+00
   15     6 C    -2.867883528895E+00  3.412997654526E+00  7.327292545620E-01
   16     6 C     3.294475914999E-03 -1.306377868494E+00  4.990135787538E+00
   17     6 C     1.804961170424E+00 -3.393097026855E+00  1.645756988870E-01
   18     6 C     1.059627882556E+00  1.326278496155E+00 -5.887440740987E+00
   19     6 C    -1.804961170424E+00  3.393097026855E+00 -1.645756988870E-01
   20     6 C    -1.059627882556E+00 -1.326278496165E+00  5.887440740987E+00
   21     6 C     1.792438934990E+00 -2.487364820279E+00  1.215082049039E+00
   22     6 C     2.567116479150E+00  2.232010702731E+00  4.474296910945E+00
   23     6 C    -1.792438934990E+00  2.487364820279E+00 -1.215082049039E+00
   24     6 C    -2.567116479150E+00 -2.232010702741E+00 -4.474296910944E+00
   25     6 C     2.841030247901E+00 -1.591218149238E+00  1.401838569054E+00
   26     6 C     1.518525166239E+00  3.128157373772E+00  4.287540390929E+00
   27     6 C    -2.841030247901E+00  1.591218149238E+00 -1.401838569054E+00
   28     6 C    -1.518525166239E+00 -3.128157373782E+00 -4.287540390929E+00
   29     6 C    -3.306525169872E+00 -1.631567663198E+00  5.532802647210E-01
   30     6 C     4.419361168920E-01  3.087807859812E+00  5.169584777379E+00
   31     6 C     3.306525169872E+00  1.631567663198E+00 -5.532802647210E-01
   32     6 C    -4.419361168920E-01 -3.087807859822E+00 -5.169584777379E+00
   33     6 C    -3.299884312335E+00 -2.529246680286E+00 -4.990884440380E-01
   34     6 C    -1.059671101805E+00  2.190128842724E+00 -5.190290515945E+00
   35     6 C     3.299884312335E+00  2.529246680286E+00  4.990884440380E-01
   36     6 C     1.059671101805E+00 -2.190128842734E+00  5.190290515946E+00
   37     6 C     1.970357128606E+00  4.594098601673E+00 -2.538987119674E+00
   38     6 C     8.942319243740E-01 -1.252769213470E-01 -3.183877922426E+00
   39     6 C    -1.970357128606E+00 -4.594098601673E+00  2.538987119674E+00
   40     6 C    -8.942319243740E-01  1.252769213370E-01  3.183877922426E+00
   41     6 C     2.409147161385E+00  3.742648599863E+00 -3.697651299460E+00
   42     6 C     4.554418915950E-01 -9.767269231570E-01 -2.025213742640E+00
   43     6 C    -2.409147161385E+00 -3.742648599863E+00  3.697651299460E+00
   44     6 C    -4.554418915950E-01  9.767269231470E-01  2.025213742640E+00
   45     1 H     9.798540197800E-01 -4.079201281181E+00  6.614048352100E-02
   46     1 H     1.884735033200E+00  6.401742418290E-01 -5.789005525621E+00
   47     1 H    -9.798540197800E-01  4.079201281181E+00 -6.614048352100E-02
   48     1 H    -1.884735033200E+00 -6.401742418390E-01  5.789005525621E+00
   49     1 H     9.534139307450E-01 -2.490878947278E+00  1.899780678192E+00
   50     1 H     3.406141483395E+00  2.228496575732E+00  3.789598281791E+00
   51     1 H    -9.534139307450E-01  2.490878947278E+00 -1.899780678192E+00
   52     1 H    -3.406141483395E+00 -2.228496575742E+00 -3.789598281791E+00
   53     1 H    -2.475825030433E+00 -9.479829861690E-01  6.695220278540E-01
   54     1 H    -3.887640225470E-01  3.771392536841E+00  5.053343014246E+00
   55     1 H     2.475825030433E+00  9.479829861690E-01 -6.695220278540E-01
   56     1 H     3.887640225470E-01 -3.771392536851E+00 -5.053343014246E+00
   57     1 H    -2.452879642761E+00 -2.541938356352E+00 -1.173759218357E+00
   58     1 H    -1.906675771379E+00  2.177437166658E+00 -4.515619741626E+00
   59     1 H     2.452879642761E+00  2.541938356352E+00  1.173759218357E+00
   60     1 H     1.906675771379E+00 -2.177437166668E+00  4.515619741626E+00
   61     1 H    -3.573975031936E+00 -3.423429176510E-01  2.690598390059E+00
   62     1 H     7.093859789560E-01  4.377032605359E+00  3.032266652041E+00
   63     1 H     3.573975031936E+00  3.423429176510E-01 -2.690598390059E+00
   64     1 H    -7.093859789560E-01 -4.377032605369E+00 -3.032266652041E+00
   65     1 H    -3.320882736537E+00 -4.442060679383E+00 -2.140037311504E+00
   66     1 H    -1.038672677603E+00  2.773148436270E-01 -3.549341648479E+00
   67     1 H     3.320882736537E+00  4.442060679383E+00  2.140037311504E+00
   68     1 H     1.038672677603E+00 -2.773148436370E-01  3.549341648479E+00
   69     1 H     1.766238081553E+00  3.916131605230E+00 -4.559207239588E+00
   70     1 H     1.098350971427E+00 -8.032439177900E-01 -1.163657802512E+00
   71     1 H    -1.766238081553E+00 -3.916131605230E+00  4.559207239588E+00
   72     1 H    -1.098350971427E+00  8.032439177800E-01  1.163657802512E+00
   73     1 H     3.445167475604E+00  3.910754321953E+00 -3.985856291676E+00
   74     1 H    -5.805784226240E-01 -8.086212010670E-01 -1.737008750424E+00
   75     1 H    -3.445167475604E+00 -3.910754321953E+00  3.985856291676E+00
   76     1 H     5.805784226240E-01  8.086212010570E-01  1.737008750424E+00
   77     1 H     2.298443212508E+00  2.689515577211E+00 -3.440735613450E+00
   78     1 H     5.661458404720E-01 -2.029859945809E+00 -2.282129428650E+00
   79     1 H    -2.298443212508E+00 -2.689515577211E+00  3.440735613450E+00
   80     1 H    -5.661458404720E-01  2.029859945799E+00  2.282129428650E+00

 *******************************************************************************
 STARTING BASIS SET HANDLING 
 *******************************************************************************

 Loading internal basis set: DEF2-MSVP           

 Please cite in your publication:
 Fully Optimized Contracted Gaussian Basis Sets for Atoms Li to Kr. A. Schäfer, H. Horn and R. Ahlrichs; J. Chem. Phys. 97, 2571 (1992).                                                                                                                         
 S. Grimme, J. G. Brandenburg, C. Bannwarth, and A. Hansen, J. Chem. Phys., 143, 054107 (2015).                                                                                                                                                                  

 *******************************************************************************
 LOCAL ATOMIC FUNCTIONS BASIS SET
 *******************************************************************************
   ATOM   X(AU)   Y(AU)   Z(AU)  N. TYPE  EXPONENT  S COEF   P COEF   D/F/G COEF
 *******************************************************************************
   1 O    5.235  -1.344   4.575
                                  1 S  
                                         6.773E+03 1.727E-03 0.000E+00 0.000E+00
                                         1.017E+03 1.325E-02 0.000E+00 0.000E+00
                                         2.313E+02 6.603E-02 0.000E+00 0.000E+00
                                         6.501E+01 2.353E-01 0.000E+00 0.000E+00
                                         2.050E+01 5.498E-01 0.000E+00 0.000E+00
                                  2 S  
                                         6.716E+00 1.000E+00 0.000E+00 0.000E+00
                                  3 S  
                                         1.147E+00 1.000E+00 0.000E+00 0.000E+00
                                  4 S  
                                         3.342E-01 1.000E+00 0.000E+00 0.000E+00
                           5-     7 P  
                                         1.769E+01 0.000E+00 4.359E-02 0.000E+00
                                         3.854E+00 0.000E+00 2.318E-01 0.000E+00
                                         1.047E+00 0.000E+00 5.146E-01 0.000E+00
                           8-    10 P  
                                         2.759E-01 0.000E+00 1.000E+00 0.000E+00
                          11-    15 D  
                                         8.000E-01 0.000E+00 0.000E+00 1.000E+00
   2 O    3.004   7.575   6.176
   3 O   -5.235   1.344  -4.575
   4 O   -3.004  -7.575  -6.176
   5 O    1.474   8.985  -4.285
   6 O    3.940   0.067  -6.530
   7 O   -1.474  -8.985   4.285
   8 O   -3.940  -0.067   6.530
   9 N    5.600  -8.113  -3.451
                                121 S  
                                         5.072E+03 1.707E-03 0.000E+00 0.000E+00
                                         7.614E+02 1.309E-02 0.000E+00 0.000E+00
                                         1.732E+02 6.510E-02 0.000E+00 0.000E+00
                                         4.867E+01 2.305E-01 0.000E+00 0.000E+00
                                         1.533E+01 5.330E-01 0.000E+00 0.000E+00
                                122 S  
                                         5.019E+00 1.000E+00 0.000E+00 0.000E+00
                                123 S  
                                         8.355E-01 1.000E+00 0.000E+00 0.000E+00
                                124 S  
                                         2.463E-01 1.000E+00 0.000E+00 0.000E+00
                         125-   127 P  
                                         1.355E+01 0.000E+00 4.063E-02 0.000E+00
                                         2.918E+00 0.000E+00 2.209E-01 0.000E+00
                                         7.983E-01 0.000E+00 5.186E-01 0.000E+00
                         128-   130 P  
                                         2.190E-01 0.000E+00 1.000E+00 0.000E+00
                         131-   135 D  
                                         8.000E-01 0.000E+00 0.000E+00 1.000E+00
  10 N   -0.187   0.805  -7.363
  11 N   -5.600   8.113   3.451
  12 N    0.187  -0.805   7.363
  13 C    5.420  -6.450  -1.385
                                181 S  
                                         3.624E+03 1.634E-03 0.000E+00 0.000E+00
                                         5.440E+02 1.252E-02 0.000E+00 0.000E+00
                                         1.237E+02 6.211E-02 0.000E+00 0.000E+00
                                         3.476E+01 2.182E-01 0.000E+00 0.000E+00
                                         1.093E+01 4.980E-01 0.000E+00 0.000E+00
                                182 S  
                                         3.574E+00 1.000E+00 0.000E+00 0.000E+00
                                183 S  
                                         5.748E-01 1.000E+00 0.000E+00 0.000E+00
                                184 S  
                                         1.730E-01 1.000E+00 0.000E+00 0.000E+00
                         185-   187 P  
                                         9.443E+00 0.000E+00 3.790E-02 0.000E+00
                                         2.002E+00 0.000E+00 2.082E-01 0.000E+00
                                         5.463E-01 0.000E+00 5.047E-01 0.000E+00
                         188-   190 P  
                                         1.520E-01 0.000E+00 1.000E+00 0.000E+00
                         191-   195 D  
                                         8.000E-01 0.000E+00 0.000E+00 1.000E+00
  14 C   -0.006   2.469  -9.430
  15 C   -5.420   6.450   1.385
  16 C    0.006  -2.469   9.430
  17 C    3.411  -6.412   0.311
  18 C    2.002   2.506 -11.126
  19 C   -3.411   6.412  -0.311
  20 C   -2.002  -2.506  11.126
  21 C    3.387  -4.700   2.296
  22 C    4.851   4.218   8.455
  23 C   -3.387   4.700  -2.296
  24 C   -4.851  -4.218  -8.455
  25 C    5.369  -3.007   2.649
  26 C    2.870   5.911   8.102
  27 C   -5.369   3.007  -2.649
  28 C   -2.870  -5.911  -8.102
  29 C   -6.248  -3.083   1.046
  30 C    0.835   5.835   9.769
  31 C    6.248   3.083  -1.046
  32 C   -0.835  -5.835  -9.769
  33 C   -6.236  -4.780  -0.943
  34 C   -2.002   4.139  -9.808
  35 C    6.236   4.780   0.943
  36 C    2.002  -4.139   9.808
  37 C    3.723   8.682  -4.798
  38 C    1.690  -0.237  -6.017
  39 C   -3.723  -8.682   4.798
  40 C   -1.690   0.237   6.017
  41 C    4.553   7.073  -6.988
  42 C    0.861  -1.846  -3.827
  43 C   -4.553  -7.073   6.988
  44 C   -0.861   1.846   3.827
  45 H    1.852  -7.709   0.125
                                661 S  
                                         1.874E+01 1.968E-02 0.000E+00 0.000E+00
                                         2.826E+00 1.380E-01 0.000E+00 0.000E+00
                                         6.401E-01 4.783E-01 0.000E+00 0.000E+00
                                662 S  
                                         1.756E-01 1.000E+00 0.000E+00 0.000E+00
  46 H    3.562   1.210 -10.940
  47 H   -1.852   7.709  -0.125
  48 H   -3.562  -1.210  10.940
  49 H    1.802  -4.707   3.590
  50 H    6.437   4.211   7.161
  51 H   -1.802   4.707  -3.590
  52 H   -6.437  -4.211  -7.161
  53 H   -4.679  -1.791   1.265
  54 H   -0.735   7.127   9.549
  55 H    4.679   1.791  -1.265
  56 H    0.735  -7.127  -9.549
  57 H   -4.635  -4.804  -2.218
  58 H   -3.603   4.115  -8.533
  59 H    4.635   4.804   2.218
  60 H    3.603  -4.115   8.533
  61 H   -6.754  -0.647   5.084
  62 H    1.341   8.271   5.730
  63 H    6.754   0.647  -5.084
  64 H   -1.341  -8.271  -5.730
  65 H   -6.276  -8.394  -4.044
  66 H   -1.963   0.524  -6.707
  67 H    6.276   8.394   4.044
  68 H    1.963  -0.524   6.707
  69 H    3.338   7.400  -8.616
  70 H    2.076  -1.518  -2.199
  71 H   -3.338  -7.400   8.616
  72 H   -2.076   1.518   2.199
  73 H    6.510   7.390  -7.532
  74 H   -1.097  -1.528  -3.282
  75 H   -6.510  -7.390   7.532
  76 H    1.097   1.528   3.282
  77 H    4.343   5.082  -6.502
  78 H    1.070  -3.836  -4.313
  79 H   -4.343  -5.082   6.502
  80 H   -1.070   3.836   4.313

 *******************************************************************************
 FINISHED BASIS SET HANDLING 
 *******************************************************************************

 INFORMATION **** SET_MPP **** PCRYSTAL CALCULATION
 INFORMATION **** READM2 **** NEW DEFAULT: FOCK/KS MATRIX MIXING SET TO 30 %
 INFORMATION **** READM2 **** NEW DEFAULT: FULL DIRECT SCF MODE
 INFORMATION **** READM2 **** NEW DEFAULT: COULOMB BIPOLAR BUFFER SET TO 32 Mb
 INFORMATION **** READM2 **** NEW DEFAULT: EXCHANGE BIPOLAR BUFFER SET TO 32 Mb

 *******************************************************************************
 NEW DEFAULT: DFT INTEGRATION GRID INCREASED TO XLGRID
 NEW DEFAULT: DIIS ACCELERATOR ACTIVE
 USE KEYWORD NODIIS TO TURN IT OFF
 *******************************************************************************

 INFORMATION **** RDDFTP **** PBEh-3c calculation
 INFORMATION **** RDDFTP **** PBEh hybrid functional combined with D3 and gCP

PLEASE CITE:
(1) PBEh-3c Reference
 S. Grimme, J. G. Brandenburg, C. Bannwarth, and A. Hansen, 
 J. Chem. Phys. 143, 054107 (2015)
(2) DFT-D3 Reference
 S. Grimme, J. Antony, S. Ehrlich, and H. Krieg, J. Chem. Phys. 132, 154104 (2010)
(3) gCP Reference
 H. Kruse and S. Grimme J. Chem. Phys, 136, 154101 (2012)
 J. G. Brandenburg, M. Alessio, B. Civalleri, M. F. Peintinger
 T. Bredow, and S. Grimme, J. Phys. Chem. A, 117, 9282 (2013) 

 WARNING **** RDDFTP **** PBEh-3c has to be combined with def2-mSVP basis set
 WARNING **** RDDFTP **** Note: Harmonic frequencies are scaled by 0.95
 WARNING **** RDDFTP **** as recommended in original publication
 INFORMATION **** TOLDEE **** SCF TOL ON TOTAL ENERGY SET TO           9
 INFORMATION **** TOLINTEG **** COULOMB AND EXCHANGE SERIES TOLERANCES MODIFIED
 INFORMATION **** MAXCYCLE **** MAX NUMBER OF SCF CYCLES SET TO          30
 WARNING **** READM2 **** PROBABLE LOSS IN FREQCALC ACCURACY; SCF TOL LT          10
 *******************************************************************************
 N. OF ATOMS PER CELL        80  COULOMB OVERLAP TOL         (T1) 10**   -8
 NUMBER OF SHELLS           380  COULOMB PENETRATION TOL     (T2) 10**   -8
 NUMBER OF AO               732  EXCHANGE OVERLAP TOL        (T3) 10**   -8
 N. OF ELECTRONS PER CELL   320  EXCHANGE PSEUDO OVP (F(G))  (T4) 10**   -8
 CORE ELECTRONS PER CELL     88  EXCHANGE PSEUDO OVP (P(G))  (T5) 10**  -24
 N. OF SYMMETRY OPERATORS     4  POLE ORDER IN MONO ZONE                  4
 *******************************************************************************
 TYPE OF CALCULATION :  RESTRICTED CLOSED SHELL
 KOHN-SHAM HAMILTONIAN

 (EXCHANGE)[CORRELATION] FUNCTIONAL:(PBEh-3c)[PBEh-3c]


 HYBRID EXCHANGE - PERCENTAGE OF FOCK EXCHANGE    42.0000

 CAPPA:IS1  4;IS2  4;IS3  2; K PTS MONK NET  18; SYMMOPS:K SPACE   4;G SPACE   4

 *******************************************************************************
 MAX NUMBER OF SCF CYCLES      30  CONVERGENCE ON DELTAP        10**-19
 WEIGHT OF F(I) IN F(I+1)      50% CONVERGENCE ON ENERGY        10**- 9
 SHRINK. FACT.(MONKH.)    4  4  2  NUMBER OF K POINTS IN THE IBZ     18
 SHRINKING FACTOR(GILAT NET)    4  NUMBER OF K POINTS(GILAT NET)     18
 *******************************************************************************
 *** K POINTS COORDINATES (OBLIQUE COORDINATES IN UNITS OF IS =  4)
   1-R(  0  0  0)   2-C(  1  0  0)   3-R(  2  0  0)   4-C(  0  1  0)
   5-C(  1  1  0)   6-C(  2  1  0)   7-R(  0  2  0)   8-C(  1  2  0)
   9-R(  2  2  0)  10-R(  0  0  1)  11-C(  1  0  1)  12-R(  2  0  1)
  13-C(  0  1  1)  14-C(  1  1  1)  15-C(  2  1  1)  16-R(  0  2  1)
  17-C(  1  2  1)  18-R(  2  2  1)

 DIRECT LATTICE VECTORS COMPON. (A.U.)     RECIP. LATTICE VECTORS COMPON. (A.U.) 
        X            Y            Z              X            Y            Z
   13.6516546    0.0000000   -0.0632795      0.4613212    0.0000000    0.2309150
   -0.0000000   17.8366545   -0.0000000     -0.0000000    0.3522625   -0.0000000
  -10.8265776    0.0000000   21.6292953      0.0013497    0.0000000    0.2911698

 DISK SPACE FOR EIGENVECTORS (FTN 10)    15003072 REALS

 SYMMETRY ADAPTION OF THE BLOCH FUNCTIONS ENABLED
 TTTTTTTTTTTTTTTTTTTTTTTTTTTTTT gordsh1     TELAPSE        4.68 TCPU        2.63

 MATRIX SIZE: P(G) 2196968, F(G)  205610, P(G) IRR  278671, F(G) IRR   52177
 MAX G-VECTOR INDEX FOR 1- AND 2-ELECTRON INTEGRALS  97

 TTTTTTTTTTTTTTTTTTTTTTTTTTTTTT INPUT       TELAPSE        4.76 TCPU        2.71

 NEIGHBORS OF THE NON-EQUIVALENT ATOMS

 N = NUMBER OF NEIGHBORS AT DISTANCE R
    ATOM  N     R/ANG      R/AU   NEIGHBORS (ATOM LABELS AND CELL INDICES)
   1 O    1     0.9831     1.8577   61 H    1 0 0
   1 O    1     1.3485     2.5483   25 C    0 0 0
   1 O    1     2.1116     3.9903   68 H    0 0 0
   1 O    1     2.3591     4.4580   21 C    0 0 0
   1 O    1     2.4040     4.5429   29 C    1 0 0
   1 O    1     2.5960     4.9058   49 H    0 0 0

   5 O    1     1.2317     2.3275   37 C    0 0 0
   5 O    1     1.7020     3.2162   64 H    0 1 0
   5 O    1     2.2618     4.2742    9 N    0 1 0
   5 O    1     2.3926     4.5214   41 C    0 0 0
   5 O    1     2.4190     4.5713   45 H    0 1 0
   5 O    1     2.6322     4.9741   69 H    0 0 0

   9 N    1     1.0127     1.9138   65 H    1 0 0
   9 N    1     1.3409     2.5340   37 C    0-1 0
   9 N    1     1.4073     2.6594   13 C    0 0 0
   9 N    1     2.2618     4.2742    5 O    0-1 0
   9 N    1     2.3894     4.5153   33 C    1 0 0
   9 N    1     2.4034     4.5418   41 C    0-1 0

  13 C    1     1.3912     2.6289   17 C    0 0 0
  13 C    1     1.3918     2.6301   33 C    1 0 0
  13 C    1     1.4073     2.6594    9 N    0 0 0
  13 C    1     2.0511     3.8760   65 H    1 0 0
  13 C    1     2.1463     4.0560   57 H    1 0 0
  13 C    1     2.1556     4.0735   45 H    0 0 0

  17 C    1     1.0776     2.0364   45 H    0 0 0
  17 C    1     1.3871     2.6213   21 C    0 0 0
  17 C    1     1.3912     2.6289   13 C    0 0 0
  17 C    1     2.1331     4.0310   49 H    0 0 0
  17 C    1     2.3924     4.5210   33 C    1 0 0
  17 C    1     2.4189     4.5710   25 C    0 0 0

  21 C    1     1.0830     2.0465   49 H    0 0 0
  21 C    1     1.3871     2.6213   17 C    0 0 0
  21 C    1     1.3919     2.6304   25 C    0 0 0
  21 C    1     2.1247     4.0151   45 H    0 0 0
  21 C    1     2.3591     4.4580    1 O    0 0 0
  21 C    1     2.3942     4.5244   29 C    1 0 0

  25 C    1     1.3485     2.5483    1 O    0 0 0
  25 C    1     1.3919     2.6304   21 C    0 0 0
  25 C    1     1.3924     2.6312   29 C    1 0 0
  25 C    1     1.9468     3.6790   61 H    1 0 0
  25 C    1     2.1495     4.0620   49 H    0 0 0
  25 C    1     2.1536     4.0697   53 H    1 0 0

  29 C    1     1.0821     2.0448   53 H    0 0 0
  29 C    1     1.3832     2.6139   33 C    0 0 0
  29 C    1     1.3924     2.6312   25 C   -1 0 0
  29 C    1     2.1308     4.0266   57 H    0 0 0
  29 C    1     2.3942     4.5244   21 C   -1 0 0
  29 C    1     2.4040     4.5429    1 O   -1 0 0

  33 C    1     1.0829     2.0465   57 H    0 0 0
  33 C    1     1.3832     2.6139   29 C    0 0 0
  33 C    1     1.3918     2.6301   13 C   -1 0 0
  33 C    1     2.1319     4.0288   53 H    0 0 0
  33 C    1     2.3894     4.5153    9 N   -1 0 0
  33 C    1     2.3924     4.5210   17 C   -1 0 0

  37 C    1     1.2317     2.3275    5 O    0 0 0
  37 C    1     1.3409     2.5340    9 N    0 1 0
  37 C    1     1.5033     2.8409   41 C    0 0 0
  37 C    1     2.0079     3.7944   65 H    1 1 0
  37 C    1     2.1327     4.0301   77 H    0 0 0
  37 C    1     2.1407     4.0453   69 H    0 0 0

  41 C    1     1.0884     2.0568   73 H    0 0 0
  41 C    1     1.0889     2.0577   69 H    0 0 0
  41 C    1     1.0897     2.0592   77 H    0 0 0
  41 C    1     1.5033     2.8409   37 C    0 0 0
  41 C    1     2.3926     4.5214    5 O    0 0 0
  41 C    1     2.4034     4.5418    9 N    0 1 0

  45 H    1     1.0776     2.0364   17 C    0 0 0
  45 H    1     2.1247     4.0151   21 C    0 0 0
  45 H    1     2.1556     4.0735   13 C    0 0 0
  45 H    1     2.3446     4.4307   47 H    0-1 0
  45 H    1     2.4190     4.5713    5 O    0-1 0
  45 H    1     2.4260     4.5846   49 H    0 0 0

  49 H    1     1.0830     2.0465   21 C    0 0 0
  49 H    1     2.1331     4.0310   17 C    0 0 0
  49 H    1     2.1495     4.0620   25 C    0 0 0
  49 H    1     2.4260     4.5846   45 H    0 0 0
  49 H    1     2.5960     4.9058    1 O    0 0 0
  49 H    1     2.7619     5.2193   68 H    0 0 0

  53 H    1     1.0821     2.0448   29 C    0 0 0
  53 H    1     2.1319     4.0288   33 C    0 0 0
  53 H    1     2.1536     4.0697   25 C   -1 0 0
  53 H    1     2.2822     4.3127   72 H    0 0 0
  53 H    1     2.3785     4.4948   61 H    0 0 0
  53 H    1     2.4370     4.6052   57 H    0 0 0

  57 H    1     1.0829     2.0465   33 C    0 0 0
  57 H    1     2.1308     4.0266   29 C    0 0 0
  57 H    1     2.1463     4.0560   13 C   -1 0 0
  57 H    1     2.3016     4.3495   65 H    0 0 0
  57 H    1     2.4370     4.6052   53 H    0 0 0
  57 H    1     2.5921     4.8983    9 N   -1 0 0

  61 H    1     0.9831     1.8577    1 O   -1 0 0
  61 H    1     1.7020     3.2162    8 O    0 0 0
  61 H    1     1.9468     3.6790   25 C   -1 0 0
  61 H    1     2.3785     4.4948   53 H    0 0 0
  61 H    1     2.5103     4.7438   29 C    0 0 0
  61 H    1     2.7605     5.2165   68 H   -1 0 0

  65 H    1     1.0127     1.9138    9 N   -1 0 0
  65 H    1     2.0079     3.7944   37 C   -1-1 0
  65 H    1     2.0511     3.8760   13 C   -1 0 0
  65 H    1     2.1116     3.9903    4 O    0 0 0
  65 H    1     2.1619     4.0853   73 H   -1-1 0
  65 H    1     2.3016     4.3495   57 H    0 0 0

  69 H    1     1.0889     2.0577   41 C    0 0 0
  69 H    1     1.7432     3.2942   77 H    0 0 0
  69 H    1     1.7741     3.3526   73 H    0 0 0
  69 H    1     2.1407     4.0453   37 C    0 0 0
  69 H    1     2.2822     4.3127   56 H    0 1 0
  69 H    1     2.6322     4.9741    5 O    0 0 0

  73 H    1     1.0884     2.0568   41 C    0 0 0
  73 H    1     1.7617     3.3291   77 H    0 0 0
  73 H    1     1.7741     3.3526   69 H    0 0 0
  73 H    1     2.1619     4.0853   65 H    1 1 0
  73 H    1     2.1761     4.1123   37 C    0 0 0
  73 H    1     2.5336     4.7879    9 N    0 1 0

  77 H    1     1.0897     2.0592   41 C    0 0 0
  77 H    1     1.7432     3.2942   69 H    0 0 0
  77 H    1     1.7617     3.3291   73 H    0 0 0
  77 H    1     2.1327     4.0301   37 C    0 0 0
  77 H    1     2.6626     5.0316    6 O    0 0 0
  77 H    1     2.7747     5.2434   63 H    0 0 0


 SYMMETRY ALLOWED INTERNAL DEGREE(S) OF FREEDOM:  60
 TTTTTTTTTTTTTTTTTTTTTTTTTTTTTT SYMM        TELAPSE        4.80 TCPU        2.74
 TTTTTTTTTTTTTTTTTTTTTTTTTTTTTT INT_SCREEN  TELAPSE        5.09 TCPU        3.03

 *******************************************************************************
 *                                                                             *
 *                                                                             *
 *         FFFFF  RRRR   EEEE   QQQ   U   U  EEEE  N   N   CCC  Y   Y          *
 *         F      R   R  E     Q   Q  U   U  E     NN  N  C      Y Y           *
 *         FFF    RRRR   EEEE  Q   Q  U   U  EEEE  N N N  C       Y            *
 *         F      R   R  E     Q  QQ  U   U  E     N  NN  C       Y            *
 *         F      R   R  EEEE   QQ Q   UUU   EEEE  N   N   CCC    Y            *
 *                                                                             *
 *                                                                             *
 * CALCULATION OF PHONON FREQUENCIES AT THE GAMMA POINT.                       *
 *                                                                             *
 * SYMMETRY IS EXPLOITED TO BUILD THE TOTAL HESSIAN MATRIX.                    *
 * (F. PASCALE PHD THESIS TURIN-PARIS 2002)                                    *
 *                                                                             *
 *******************************************************************************


 * INTENSITIES COMPUTED VIA THE BERRY PHASE APPROACH                           *
 *                                                                             *
 * REFERENCES TO BE QUOTED WHEN USING THIS MODULE:                             *
 *                                                                             *
 * F. Pascale, C.M. Zicovich-Wilson, F. Lopez, B. Civalleri                    *
 * R. Orlando, R. Dovesi                                                       *
 * The calculation of the vibration frequencies of crystalline                 *
 * compounds and its implementation in the CRYSTAL code                        *
 * J. Comput. Chem. 25 (2004) 888-897                                          *
 *                                                                             *
 * C.M. Zicovich-Wilson, F. Pascale, C. Roetti, V.R. Saunders,                 *
 * R. Orlando, R. Dovesi                                                       *
 * The calculation of the vibration frequencies of alpha-quartz:               *
 * the effect of hamiltonian and basis set                                     *
 * J. Comput. Chem. 25 (2004) 1873-1881                                        *
 *******************************************************************************



 ATOMS ISOTOPIC MASS (AMU) FOR FREQUENCY CALCULATION 

    1 O      15.9949    2 O      15.9949    3 O      15.9949    4 O      15.9949
    5 O      15.9949    6 O      15.9949    7 O      15.9949    8 O      15.9949
    9 N      14.0031   10 N      14.0031   11 N      14.0031   12 N      14.0031
   13 C      12.0000   14 C      12.0000   15 C      12.0000   16 C      12.0000
   17 C      12.0000   18 C      12.0000   19 C      12.0000   20 C      12.0000
   21 C      12.0000   22 C      12.0000   23 C      12.0000   24 C      12.0000
   25 C      12.0000   26 C      12.0000   27 C      12.0000   28 C      12.0000
   29 C      12.0000   30 C      12.0000   31 C      12.0000   32 C      12.0000
   33 C      12.0000   34 C      12.0000   35 C      12.0000   36 C      12.0000
   37 C      12.0000   38 C      12.0000   39 C      12.0000   40 C      12.0000
   41 C      12.0000   42 C      12.0000   43 C      12.0000   44 C      12.0000
   45 H       1.0078   46 H       1.0078   47 H       1.0078   48 H       1.0078
   49 H       1.0078   50 H       1.0078   51 H       1.0078   52 H       1.0078
   53 H       1.0078   54 H       1.0078   55 H       1.0078   56 H       1.0078
   57 H       1.0078   58 H       1.0078   59 H       1.0078   60 H       1.0078
   61 H       1.0078   62 H       1.0078   63 H       1.0078   64 H       1.0078
   65 H       1.0078   66 H       1.0078   67 H       1.0078   68 H       1.0078
   69 H       1.0078   70 H       1.0078   71 H       1.0078   72 H       1.0078
   73 H       1.0078   74 H       1.0078   75 H       1.0078   76 H       1.0078
   77 H       1.0078   78 H       1.0078   79 H       1.0078   80 H       1.0078

 INFORMATION CONCERNING THE SCF+GRADIENT CALCULATIONS REQUIRED FOR
 GENERATING FREQUENCIES. IN PRINCIPLE 3N+1 SCF + GRADIENT
 CALCULATIONS  ARE REQUIRED;
 FOR EACH OF THEM THE REMAINING POINT SYMMETRY IS INDICATED.
 POINT SYMMETRY PERMITS TO GENERATE GRADIENTS FOR DISPLACEMENT B 
 STARTING FROM THE GRADIENT GENERATED BY DISPLACEMENT A.

   N   LABEL SYMBOL DISPLACEMENT     SYM. 

   1     EQUILIBRIUM GEOMETRY            4

   2      1   O            DX           1
   3      1   O            DY           1
   4      1   O            DZ           1
   5      5   O            DX           1
   6      5   O            DY           1
   7      5   O            DZ           1
   8      9   N            DX           1
   9      9   N            DY           1
  10      9   N            DZ           1
  11     13   C            DX           1
  12     13   C            DY           1
  13     13   C            DZ           1
  14     17   C            DX           1
  15     17   C            DY           1
  16     17   C            DZ           1
  17     21   C            DX           1
  18     21   C            DY           1
  19     21   C            DZ           1
  20     25   C            DX           1
  21     25   C            DY           1
  22     25   C            DZ           1
  23     29   C            DX           1
  24     29   C            DY           1
  25     29   C            DZ           1
  26     33   C            DX           1
  27     33   C            DY           1
  28     33   C            DZ           1
  29     37   C            DX           1
  30     37   C            DY           1
  31     37   C            DZ           1
  32     41   C            DX           1
  33     41   C            DY           1
  34     41   C            DZ           1
  35     45   H            DX           1
  36     45   H            DY           1
  37     45   H            DZ           1
  38     49   H            DX           1
  39     49   H            DY           1
  40     49   H            DZ           1
  41     53   H            DX           1
  42     53   H            DY           1
  43     53   H            DZ           1
  44     57   H            DX           1
  45     57   H            DY           1
  46     57   H            DZ           1
  47     61   H            DX           1
  48     61   H            DY           1
  49     61   H            DZ           1
  50     65   H            DX           1
  51     65   H            DY           1
  52     65   H            DZ           1
  53     69   H            DX           1
  54     69   H            DY           1
  55     69   H            DZ           1
  56     73   H            DX           1
  57     73   H            DY           1
  58     73   H            DZ           1
  59     77   H            DX           1
  60     77   H            DY           1
  61     77   H            DZ           1
 USE OF RESIDUAL SYMMETRY AFTER DISPLACEMENT

 NUMERICAL GRADIENT COMPUTED WITH A SINGLE DISPLACEMENT (+DX) FOR EACH
 CARTESIAN COORDINATE WITH RESPECT TO THE EQUILIBRIUM CONFIGURATION
 DX=  0.003 ANGSTROM
 NUMBER OF IRREDUCIBLE ATOMS                    20
 NUMBER OF SCF+GRADIENT CALCULATIONS            61

  ATOM  SYMOP  ORDER
    1      1      1
    5      1      1
    9      1      1
   13      1      1
   17      1      1
   21      1      1
   25      1      1
   29      1      1
   33      1      1
   37      1      1
   41      1      1
   45      1      1
   49      1      1
   53      1      1
   57      1      1
   61      1      1
   65      1      1
   69      1      1
   73      1      1
   77      1      1

 ATOM  : IRREDUCIBLE ATOM
 SYMOP : NUMBER OF SYMMETRY OPERATORS THAT DOESN'T MOVE THE IRREDUCIBLE ATOM
 ORDER : MAXIMUM ORDER AMONG THE OPERATORS OF THE IRREDUCIBLE ATOM

 *******************************************************************************


 GCALCO - MAX INDICES DIRECT LATTICE VECTOR    20    14    11
 NO.OF VECTORS CREATED 6999 STARS 1868 RMAX   206.28866 BOHR

 CAPPA:IS1  4;IS2  4;IS3  2; K PTS MONK NET  18; SYMMOPS:K SPACE   4;G SPACE   4

 TTTTTTTTTTTTTTTTTTTTTTTTTTTTTT gordsh1     TELAPSE        5.12 TCPU        3.06

 MATRIX SIZE: P(G) 2196968, F(G)  205610, P(G) IRR  278671, F(G) IRR   52177
 MAX G-VECTOR INDEX FOR 1- AND 2-ELECTRON INTEGRALS  97

 TTTTTTTTTTTTTTTTTTTTTTTTTTTTTT INPUT       TELAPSE        5.14 TCPU        3.08

 SYMMETRY ALLOWED INTERNAL DEGREE(S) OF FREEDOM:  60
 TTTTTTTTTTTTTTTTTTTTTTTTTTTTTT SYMM        TELAPSE        5.16 TCPU        3.10
 TTTTTTTTTTTTTTTTTTTTTTTTTTTTTT INT_SCREEN  TELAPSE        5.17 TCPU        3.12
 INFORMATION **** EXCBUF **** EXCH. BIPO BUFFER: WORDS USED =     3743487

 DFT PARAMETERS

     ATOM       ELECTRONS   NET CHARGE   R(ANGSTROM)
   1   8  O       8.0000      0.0000     0.74000000
   9   7  N       7.0000      0.0000     0.74000000
  13   6  C       6.0000      0.0000     0.77000000
  45   1  H       1.0000      0.0000     1.11000000

 SIZE OF GRID=    1005492
 TTTTTTTTTTTTTTTTTTTTTTTTTTTTTT MAKE_GRID2  TELAPSE        8.58 TCPU        6.53
 BECKE WEIGHT FUNCTION
 RADSAFE =     2.00
 TOLERANCES - DENSITY:10**- 6; POTENTIAL:10**- 9; GRID WGT:10**-14

 RADIAL INTEGRATION  - INTERVALS (POINTS,UPPER LIMIT):            1( 99,  4.0*R)

 ANGULAR INTEGRATION - INTERVALS (ACCURACY LEVEL [N. POINTS] UPPER LIMIT):
  1(  6[ 146]   0.2)  2( 11[ 302]   0.5)  3( 14[ 590]   0.9)  4( 18[1454]   3.5)
  5( 14[ 590]9999.0)
 TTTTTTTTTTTTTTTTTTTTTTTTTTTTTT INT_CALC    TELAPSE        8.62 TCPU        6.56

 *******************************************************************************
 F1 vol step5 freq - PBEh-3c                                                     
 CRYSTAL - SCF - TYPE OF CALCULATION :  RESTRICTED CLOSED SHELL
 *******************************************************************************

 CAPPA:IS1  4;IS2  4;IS3  2; K PTS MONK NET  18; SYMMOPS:K SPACE   4;G SPACE   4

 TTTTTTTTTTTTTTTTTTTTTTTTTTTTTT SDIK        TELAPSE        8.89 TCPU        6.83

 AAAAAAAAAAAAAAAAAAAAAAAAAAAAAAAAAAAAAAAAAAAAAAAAAAAAAAAAAAAAAAAAAAAAAAAAAAAAAAA
         ATOMIC WAVEFUNCTION(S)


 NUCLEAR CHARGE  8.0  SYMMETRY SPECIES            S    P
 N. ELECTRONS    8.0  NUMBER OF PRIMITIVE GTOS    8    4
                      NUMBER OF CONTRACTED GTOS   4    2
                      NUMBER OF CLOSED SHELLS     2    0
                      OPEN SHELL OCCUPATION       0    4

  ZNUC SCFIT  TOTAL HF ENERGY   KINETIC ENERGY   VIRIAL THEOREM ACCURACY
   8.0  12   -7.477373220E+01  7.477365593E+01 -2.000001020E+00  3.8E-06

 NUCLEAR CHARGE  7.0  SYMMETRY SPECIES            S    P
 N. ELECTRONS    7.0  NUMBER OF PRIMITIVE GTOS    8    4
                      NUMBER OF CONTRACTED GTOS   4    2
                      NUMBER OF CLOSED SHELLS     2    0
                      OPEN SHELL OCCUPATION       0    3

  ZNUC SCFIT  TOTAL HF ENERGY   KINETIC ENERGY   VIRIAL THEOREM ACCURACY
   7.0   9   -5.437948210E+01  5.437948297E+01 -1.999999984E+00  1.2E-06

 NUCLEAR CHARGE  6.0  SYMMETRY SPECIES            S    P
 N. ELECTRONS    6.0  NUMBER OF PRIMITIVE GTOS    8    4
                      NUMBER OF CONTRACTED GTOS   4    2
                      NUMBER OF CLOSED SHELLS     2    0
                      OPEN SHELL OCCUPATION       0    2

  ZNUC SCFIT  TOTAL HF ENERGY   KINETIC ENERGY   VIRIAL THEOREM ACCURACY
   6.0   9   -3.767634636E+01  3.767630973E+01 -2.000000972E+00  4.2E-06

 NUCLEAR CHARGE  1.0  SYMMETRY SPECIES            S
 N. ELECTRONS    1.0  NUMBER OF PRIMITIVE GTOS    4
                      NUMBER OF CONTRACTED GTOS   2
                      NUMBER OF CLOSED SHELLS     0
                      OPEN SHELL OCCUPATION       1

  ZNUC SCFIT  TOTAL HF ENERGY   KINETIC ENERGY   VIRIAL THEOREM ACCURACY
   1.0   1   -4.977266687E-01  5.190767460E-01 -1.958869132E+00  2.2E-17

 AAAAAAAAAAAAAAAAAAAAAAAAAAAAAAAAAAAAAAAAAAAAAAAAAAAAAAAAAAAAAAAAAAAAAAAAAAAAAAA

 TTTTTTTTTTTTTTTTTTTTTTTTTTTTTT MOQGAD      TELAPSE        9.35 TCPU        7.18
 TTTTTTTTTTTTTTTTTTTTTTTTTTTTTT SHELLXN     TELAPSE       11.31 TCPU        9.13
 TTTTTTTTTTTTTTTTTTTTTTTTTTTTTT MONMO3      TELAPSE       12.19 TCPU       10.01
 NUMERICALLY INTEGRATED DENSITY    319.9998947952
 TTTTTTTTTTTTTTTTTTTTTTTTTTTTTT NUMDFT      TELAPSE       12.61 TCPU       10.43
 CYC   0 ETOT(AU) -2.070639823707E+03 DETOT -2.07E+03 tst  0.00E+00 PX  1.00E+00
 TTTTTTTTTTTTTTTTTTTTTTTTTTTTTT DIIS        TELAPSE       12.64 TCPU       10.46
 TTTTTTTTTTTTTTTTTTTTTTTTTTTTTT FDIK        TELAPSE       13.21 TCPU       11.03
 INSULATING STATE
 TOP OF VALENCE BANDS -    BAND    160; K    1; EIG -2.8231455E-01 AU
 BOTTOM OF VIRTUAL BANDS - BAND    161; K    7; EIG -1.2489497E-01 AU
 INDIRECT ENERGY BAND GAP:   4.2836 eV
 BOTTOM OF VIRTUAL BANDS - BAND    161; K    1; EIG -1.1975679E-01 AU
 TTTTTTTTTTTTTTTTTTTTTTTTTTTTTT PDIG        TELAPSE       13.55 TCPU       11.37
 TTTTTTTTTTTTTTTTTTTTTTTTTTTTTT MOQGAD      TELAPSE       13.56 TCPU       11.38
 TTTTTTTTTTTTTTTTTTTTTTTTTTTTTT SHELLXN     TELAPSE       15.62 TCPU       13.42
 TTTTTTTTTTTTTTTTTTTTTTTTTTTTTT MONMO3      TELAPSE       16.50 TCPU       14.29
 NUMERICALLY INTEGRATED DENSITY    319.9999056767
 TTTTTTTTTTTTTTTTTTTTTTTTTTTTTT NUMDFT      TELAPSE       16.96 TCPU       14.75
 CYC   1 ETOT(AU) -2.057243573419E+03 DETOT  1.34E+01 tst  0.00E+00 PX  1.00E+00
 TTTTTTTTTTTTTTTTTTTTTTTTTTTTTT DIIS        TELAPSE       16.99 TCPU       14.79
 DIIS TEST: 0.17628E+01 AT SCF   CYCLE   1 - MIX   50 %
 TTTTTTTTTTTTTTTTTTTTTTTTTTTTTT FDIK        TELAPSE       17.59 TCPU       15.38
 INSULATING STATE
 TOP OF VALENCE BANDS -    BAND    160; K   10; EIG -2.4994103E-01 AU
 TOP OF VALENCE BANDS -    BAND    160; K    1; EIG -2.5000394E-01 AU
 BOTTOM OF VIRTUAL BANDS - BAND    161; K    1; EIG -4.6923791E-02 AU
 INDIRECT ENERGY BAND GAP:   5.5244 eV
 TTTTTTTTTTTTTTTTTTTTTTTTTTTTTT PDIG        TELAPSE       17.93 TCPU       15.72
 TTTTTTTTTTTTTTTTTTTTTTTTTTTTTT MOQGAD      TELAPSE       17.93 TCPU       15.72
 TTTTTTTTTTTTTTTTTTTTTTTTTTTTTT SHELLXN     TELAPSE       19.99 TCPU       17.77
 TTTTTTTTTTTTTTTTTTTTTTTTTTTTTT MONMO3      TELAPSE       20.91 TCPU       18.69
 NUMERICALLY INTEGRATED DENSITY    319.9999007757
 TTTTTTTTTTTTTTTTTTTTTTTTTTTTTT NUMDFT      TELAPSE       21.40 TCPU       19.19
 CYC   2 ETOT(AU) -2.057709970421E+03 DETOT -4.66E-01 tst  9.71E-04 PX  1.28E-01
 TTTTTTTTTTTTTTTTTTTTTTTTTTTTTT DIIS        TELAPSE       21.43 TCPU       19.22
 DIIS TEST: 0.14324E+00 AT SCF   CYCLE   2 - DIIS ACTIVE - HISTORY:     2 CYCLES
 TTTTTTTTTTTTTTTTTTTTTTTTTTTTTT FDIK        TELAPSE       22.04 TCPU       19.81
 INSULATING STATE
 TOP OF VALENCE BANDS -    BAND    160; K   10; EIG -2.4147212E-01 AU
 TOP OF VALENCE BANDS -    BAND    160; K    1; EIG -2.4152891E-01 AU
 BOTTOM OF VIRTUAL BANDS - BAND    161; K    7; EIG -4.9828614E-03 AU
 INDIRECT ENERGY BAND GAP:   6.4352 eV
 BOTTOM OF VIRTUAL BANDS - BAND    161; K    1; EIG -1.8956479E-03 AU
 TTTTTTTTTTTTTTTTTTTTTTTTTTTTTT PDIG        TELAPSE       22.38 TCPU       20.15
 TTTTTTTTTTTTTTTTTTTTTTTTTTTTTT MOQGAD      TELAPSE       22.39 TCPU       20.15
 TTTTTTTTTTTTTTTTTTTTTTTTTTTTTT SHELLXN     TELAPSE       24.44 TCPU       22.20
 TTTTTTTTTTTTTTTTTTTTTTTTTTTTTT MONMO3      TELAPSE       25.34 TCPU       23.09
 NUMERICALLY INTEGRATED DENSITY    319.9998960241
 TTTTTTTTTTTTTTTTTTTTTTTTTTTTTT NUMDFT      TELAPSE       25.58 TCPU       23.34
 CYC   3 ETOT(AU) -2.057732140971E+03 DETOT -2.22E-02 tst  2.08E-04 PX  4.27E-02
 TTTTTTTTTTTTTTTTTTTTTTTTTTTTTT DIIS        TELAPSE       25.61 TCPU       23.37
 DIIS TEST: 0.80107E-01 AT SCF   CYCLE   3 - DIIS ACTIVE - HISTORY:     3 CYCLES
 TTTTTTTTTTTTTTTTTTTTTTTTTTTTTT FDIK        TELAPSE       26.19 TCPU       23.94
 INSULATING STATE
 TOP OF VALENCE BANDS -    BAND    160; K   10; EIG -2.5168464E-01 AU
 TOP OF VALENCE BANDS -    BAND    160; K    1; EIG -2.5180221E-01 AU
 BOTTOM OF VIRTUAL BANDS - BAND    161; K    7; EIG -1.1889857E-02 AU
 INDIRECT ENERGY BAND GAP:   6.5252 eV
 BOTTOM OF VIRTUAL BANDS - BAND    161; K    1; EIG -7.7179472E-03 AU
 TTTTTTTTTTTTTTTTTTTTTTTTTTTTTT PDIG        TELAPSE       26.53 TCPU       24.28
 TTTTTTTTTTTTTTTTTTTTTTTTTTTTTT MOQGAD      TELAPSE       26.53 TCPU       24.29
 TTTTTTTTTTTTTTTTTTTTTTTTTTTTTT SHELLXN     TELAPSE       28.58 TCPU       26.33
 TTTTTTTTTTTTTTTTTTTTTTTTTTTTTT MONMO3      TELAPSE       29.48 TCPU       27.23
 NUMERICALLY INTEGRATED DENSITY    319.9998982732
 TTTTTTTTTTTTTTTTTTTTTTTTTTTTTT NUMDFT      TELAPSE       29.72 TCPU       27.47
 CYC   4 ETOT(AU) -2.057750359340E+03 DETOT -1.82E-02 tst  1.19E-04 PX  3.23E-02
 TTTTTTTTTTTTTTTTTTTTTTTTTTTTTT DIIS        TELAPSE       29.75 TCPU       27.50
 DIIS TEST: 0.90502E-02 AT SCF   CYCLE   4 - DIIS ACTIVE - HISTORY:     4 CYCLES
 TTTTTTTTTTTTTTTTTTTTTTTTTTTTTT FDIK        TELAPSE       30.33 TCPU       28.07
 INSULATING STATE
 TOP OF VALENCE BANDS -    BAND    160; K   10; EIG -2.4935635E-01 AU
 TOP OF VALENCE BANDS -    BAND    160; K    1; EIG -2.4946279E-01 AU
 BOTTOM OF VIRTUAL BANDS - BAND    161; K    7; EIG -9.8738121E-03 AU
 INDIRECT ENERGY BAND GAP:   6.5167 eV
 BOTTOM OF VIRTUAL BANDS - BAND    161; K    1; EIG -6.4250992E-03 AU
 TTTTTTTTTTTTTTTTTTTTTTTTTTTTTT PDIG        TELAPSE       30.67 TCPU       28.41
 TTTTTTTTTTTTTTTTTTTTTTTTTTTTTT MOQGAD      TELAPSE       30.67 TCPU       28.42
 TTTTTTTTTTTTTTTTTTTTTTTTTTTTTT SHELLXN     TELAPSE       32.72 TCPU       30.46
 TTTTTTTTTTTTTTTTTTTTTTTTTTTTTT MONMO3      TELAPSE       33.61 TCPU       31.36
 NUMERICALLY INTEGRATED DENSITY    319.9998977418
 TTTTTTTTTTTTTTTTTTTTTTTTTTTTTT NUMDFT      TELAPSE       33.86 TCPU       31.60
 CYC   5 ETOT(AU) -2.057752500028E+03 DETOT -2.14E-03 tst  9.42E-06 PX  8.04E-03
 TTTTTTTTTTTTTTTTTTTTTTTTTTTTTT DIIS        TELAPSE       33.89 TCPU       31.63
 DIIS TEST: 0.82341E-03 AT SCF   CYCLE   5 - DIIS ACTIVE - HISTORY:     5 CYCLES
 TTTTTTTTTTTTTTTTTTTTTTTTTTTTTT FDIK        TELAPSE       34.57 TCPU       32.31
 INSULATING STATE
 TOP OF VALENCE BANDS -    BAND    160; K   10; EIG -2.4903665E-01 AU
 TOP OF VALENCE BANDS -    BAND    160; K    1; EIG -2.4914616E-01 AU
 BOTTOM OF VIRTUAL BANDS - BAND    161; K    7; EIG -9.5682870E-03 AU
 INDIRECT ENERGY BAND GAP:   6.5163 eV
 BOTTOM OF VIRTUAL BANDS - BAND    161; K    1; EIG -5.7651250E-03 AU
 TTTTTTTTTTTTTTTTTTTTTTTTTTTTTT PDIG        TELAPSE       34.91 TCPU       32.65
 TTTTTTTTTTTTTTTTTTTTTTTTTTTTTT MOQGAD      TELAPSE       34.91 TCPU       32.65
 TTTTTTTTTTTTTTTTTTTTTTTTTTTTTT SHELLXN     TELAPSE       37.06 TCPU       34.68
 TTTTTTTTTTTTTTTTTTTTTTTTTTTTTT MONMO3      TELAPSE       37.86 TCPU       35.48
 NUMERICALLY INTEGRATED DENSITY    319.9998976373
 TTTTTTTTTTTTTTTTTTTTTTTTTTTTTT NUMDFT      TELAPSE       38.10 TCPU       35.72
 CYC   6 ETOT(AU) -2.057752686882E+03 DETOT -1.87E-04 tst  1.41E-06 PX  1.75E-03
 TTTTTTTTTTTTTTTTTTTTTTTTTTTTTT DIIS        TELAPSE       38.13 TCPU       35.75
 DIIS TEST: 0.48694E-04 AT SCF   CYCLE   6 - DIIS ACTIVE - HISTORY:     6 CYCLES
 TTTTTTTTTTTTTTTTTTTTTTTTTTTTTT FDIK        TELAPSE       38.71 TCPU       36.32
 INSULATING STATE
 TOP OF VALENCE BANDS -    BAND    160; K   10; EIG -2.4896445E-01 AU
 TOP OF VALENCE BANDS -    BAND    160; K    1; EIG -2.4906918E-01 AU
 BOTTOM OF VIRTUAL BANDS - BAND    161; K    7; EIG -9.5501177E-03 AU
 INDIRECT ENERGY BAND GAP:   6.5148 eV
 BOTTOM OF VIRTUAL BANDS - BAND    161; K    1; EIG -5.6548362E-03 AU
 TTTTTTTTTTTTTTTTTTTTTTTTTTTTTT PDIG        TELAPSE       39.05 TCPU       36.66
 TTTTTTTTTTTTTTTTTTTTTTTTTTTTTT MOQGAD      TELAPSE       39.05 TCPU       36.66
 TTTTTTTTTTTTTTTTTTTTTTTTTTTTTT SHELLXN     TELAPSE       41.10 TCPU       38.71
 TTTTTTTTTTTTTTTTTTTTTTTTTTTTTT MONMO3      TELAPSE       42.00 TCPU       39.61
 NUMERICALLY INTEGRATED DENSITY    319.9998976116
 TTTTTTTTTTTTTTTTTTTTTTTTTTTTTT NUMDFT      TELAPSE       42.24 TCPU       39.85
 CYC   7 ETOT(AU) -2.057752697059E+03 DETOT -1.02E-05 tst  2.16E-07 PX  4.99E-04
 TTTTTTTTTTTTTTTTTTTTTTTTTTTTTT DIIS        TELAPSE       42.32 TCPU       39.93
 DIIS TEST: 0.78523E-05 AT SCF   CYCLE   7 - DIIS ACTIVE - HISTORY:     7 CYCLES
 TTTTTTTTTTTTTTTTTTTTTTTTTTTTTT FDIK        TELAPSE       42.93 TCPU       40.53
 INSULATING STATE
 TOP OF VALENCE BANDS -    BAND    160; K   10; EIG -2.4900109E-01 AU
 TOP OF VALENCE BANDS -    BAND    160; K    1; EIG -2.4910799E-01 AU
 BOTTOM OF VIRTUAL BANDS - BAND    161; K    7; EIG -9.5557876E-03 AU
 INDIRECT ENERGY BAND GAP:   6.5156 eV
 BOTTOM OF VIRTUAL BANDS - BAND    161; K    1; EIG -5.7047427E-03 AU
 TTTTTTTTTTTTTTTTTTTTTTTTTTTTTT PDIG        TELAPSE       43.27 TCPU       40.87
 TTTTTTTTTTTTTTTTTTTTTTTTTTTTTT MOQGAD      TELAPSE       43.27 TCPU       40.88
 TTTTTTTTTTTTTTTTTTTTTTTTTTTTTT SHELLXN     TELAPSE       45.31 TCPU       42.91
 TTTTTTTTTTTTTTTTTTTTTTTTTTTTTT MONMO3      TELAPSE       46.22 TCPU       43.81
 NUMERICALLY INTEGRATED DENSITY    319.9998976109
 TTTTTTTTTTTTTTTTTTTTTTTTTTTTTT NUMDFT      TELAPSE       46.71 TCPU       44.31
 CYC   8 ETOT(AU) -2.057752699571E+03 DETOT -2.51E-06 tst  1.53E-08 PX  1.84E-04
 TTTTTTTTTTTTTTTTTTTTTTTTTTTTTT DIIS        TELAPSE       46.76 TCPU       44.35
 DIIS TEST: 0.29446E-06 AT SCF   CYCLE   8 - DIIS ACTIVE - HISTORY:     8 CYCLES
 TTTTTTTTTTTTTTTTTTTTTTTTTTTTTT FDIK        TELAPSE       47.33 TCPU       44.92
 INSULATING STATE
 TOP OF VALENCE BANDS -    BAND    160; K   10; EIG -2.4901058E-01 AU
 TOP OF VALENCE BANDS -    BAND    160; K    1; EIG -2.4911677E-01 AU
 BOTTOM OF VIRTUAL BANDS - BAND    161; K    7; EIG -9.5607825E-03 AU
 INDIRECT ENERGY BAND GAP:   6.5158 eV
 BOTTOM OF VIRTUAL BANDS - BAND    161; K    1; EIG -5.7083678E-03 AU
 TTTTTTTTTTTTTTTTTTTTTTTTTTTTTT PDIG        TELAPSE       47.67 TCPU       45.26
 TTTTTTTTTTTTTTTTTTTTTTTTTTTTTT MOQGAD      TELAPSE       47.68 TCPU       45.27
 TTTTTTTTTTTTTTTTTTTTTTTTTTTTTT SHELLXN     TELAPSE       49.75 TCPU       47.31
 TTTTTTTTTTTTTTTTTTTTTTTTTTTTTT MONMO3      TELAPSE       50.63 TCPU       48.18
 NUMERICALLY INTEGRATED DENSITY    319.9998976114
 TTTTTTTTTTTTTTTTTTTTTTTTTTTTTT NUMDFT      TELAPSE       51.05 TCPU       48.60
 CYC   9 ETOT(AU) -2.057752699822E+03 DETOT -2.52E-07 tst  1.36E-09 PX  5.13E-05
 TTTTTTTTTTTTTTTTTTTTTTTTTTTTTT DIIS        TELAPSE       51.21 TCPU       48.76
 DIIS TEST: 0.71623E-07 AT SCF   CYCLE   9 - DIIS ACTIVE - HISTORY:     9 CYCLES
 TTTTTTTTTTTTTTTTTTTTTTTTTTTTTT FDIK        TELAPSE       51.78 TCPU       49.34
 INSULATING STATE
 TOP OF VALENCE BANDS -    BAND    160; K   10; EIG -2.4900920E-01 AU
 TOP OF VALENCE BANDS -    BAND    160; K    1; EIG -2.4911571E-01 AU
 BOTTOM OF VIRTUAL BANDS - BAND    161; K    7; EIG -9.5657447E-03 AU
 INDIRECT ENERGY BAND GAP:   6.5156 eV
 BOTTOM OF VIRTUAL BANDS - BAND    161; K    1; EIG -5.7059216E-03 AU
 TTTTTTTTTTTTTTTTTTTTTTTTTTTTTT PDIG        TELAPSE       52.12 TCPU       49.67
 TTTTTTTTTTTTTTTTTTTTTTTTTTTTTT MOQGAD      TELAPSE       52.13 TCPU       49.68
 TTTTTTTTTTTTTTTTTTTTTTTTTTTTTT SHELLXN     TELAPSE       54.18 TCPU       51.73
 TTTTTTTTTTTTTTTTTTTTTTTTTTTTTT MONMO3      TELAPSE       55.09 TCPU       52.64
 NUMERICALLY INTEGRATED DENSITY    319.9998976108
 TTTTTTTTTTTTTTTTTTTTTTTTTTTTTT NUMDFT      TELAPSE       55.33 TCPU       52.88
 CYC  10 ETOT(AU) -2.057752699846E+03 DETOT -2.38E-08 tst  1.04E-10 PX  2.58E-05
 TTTTTTTTTTTTTTTTTTTTTTTTTTTTTT DIIS        TELAPSE       55.37 TCPU       52.92
 DIIS TEST: 0.53049E-08 AT SCF   CYCLE  10 - DIIS ACTIVE - HISTORY:    10 CYCLES
 TTTTTTTTTTTTTTTTTTTTTTTTTTTTTT FDIK        TELAPSE       55.94 TCPU       53.49
 INSULATING STATE
 TOP OF VALENCE BANDS -    BAND    160; K   10; EIG -2.4900910E-01 AU
 TOP OF VALENCE BANDS -    BAND    160; K    1; EIG -2.4911556E-01 AU
 BOTTOM OF VIRTUAL BANDS - BAND    161; K    7; EIG -9.5636733E-03 AU
 INDIRECT ENERGY BAND GAP:   6.5156 eV
 BOTTOM OF VIRTUAL BANDS - BAND    161; K    1; EIG -5.7056605E-03 AU
 TTTTTTTTTTTTTTTTTTTTTTTTTTTTTT PDIG        TELAPSE       56.28 TCPU       53.83
 TTTTTTTTTTTTTTTTTTTTTTTTTTTTTT MOQGAD      TELAPSE       56.29 TCPU       53.83
 TTTTTTTTTTTTTTTTTTTTTTTTTTTTTT SHELLXN     TELAPSE       58.34 TCPU       55.88
 TTTTTTTTTTTTTTTTTTTTTTTTTTTTTT MONMO3      TELAPSE       59.24 TCPU       56.78
 NUMERICALLY INTEGRATED DENSITY    319.9998976106
 TTTTTTTTTTTTTTTTTTTTTTTTTTTTTT NUMDFT      TELAPSE       59.48 TCPU       57.02
 CYC  11 ETOT(AU) -2.057752699864E+03 DETOT -1.74E-08 tst  1.12E-11 PX  5.77E-06
 TTTTTTTTTTTTTTTTTTTTTTTTTTTTTT DIIS        TELAPSE       59.51 TCPU       57.05
 DIIS TEST: 0.42943E-09 AT SCF   CYCLE  11 - DIIS ACTIVE - HISTORY:    11 CYCLES
 TTTTTTTTTTTTTTTTTTTTTTTTTTTTTT FDIK        TELAPSE       60.09 TCPU       57.63
 INSULATING STATE
 TOP OF VALENCE BANDS -    BAND    160; K   10; EIG -2.4900868E-01 AU
 TOP OF VALENCE BANDS -    BAND    160; K    1; EIG -2.4911516E-01 AU
 BOTTOM OF VIRTUAL BANDS - BAND    161; K    7; EIG -9.5636728E-03 AU
 INDIRECT ENERGY BAND GAP:   6.5156 eV
 BOTTOM OF VIRTUAL BANDS - BAND    161; K    1; EIG -5.7054562E-03 AU
 TTTTTTTTTTTTTTTTTTTTTTTTTTTTTT PDIG        TELAPSE       60.43 TCPU       57.97
 TTTTTTTTTTTTTTTTTTTTTTTTTTTTTT MOQGAD      TELAPSE       60.43 TCPU       57.97
 TTTTTTTTTTTTTTTTTTTTTTTTTTTTTT SHELLXN     TELAPSE       62.48 TCPU       60.02
 TTTTTTTTTTTTTTTTTTTTTTTTTTTTTT MONMO3      TELAPSE       63.38 TCPU       60.92
 NUMERICALLY INTEGRATED DENSITY    319.9998976108
 TTTTTTTTTTTTTTTTTTTTTTTTTTTTTT NUMDFT      TELAPSE       63.73 TCPU       61.26
 CYC  12 ETOT(AU) -2.057752699862E+03 DETOT  2.07E-09 tst  9.90E-13 PX  1.57E-06
 TTTTTTTTTTTTTTTTTTTTTTTTTTTTTT DIIS        TELAPSE       63.76 TCPU       61.29
 DIIS TEST: 0.36036E-10 AT SCF   CYCLE  12 - DIIS ACTIVE - HISTORY:    12 CYCLES
 TTTTTTTTTTTTTTTTTTTTTTTTTTTTTT FDIK        TELAPSE       64.34 TCPU       61.87
 INSULATING STATE
 TOP OF VALENCE BANDS -    BAND    160; K   10; EIG -2.4900857E-01 AU
 TOP OF VALENCE BANDS -    BAND    160; K    1; EIG -2.4911505E-01 AU
 BOTTOM OF VIRTUAL BANDS - BAND    161; K    7; EIG -9.5635233E-03 AU
 INDIRECT ENERGY BAND GAP:   6.5156 eV
 BOTTOM OF VIRTUAL BANDS - BAND    161; K    1; EIG -5.7052814E-03 AU
 TTTTTTTTTTTTTTTTTTTTTTTTTTTTTT PDIG        TELAPSE       64.68 TCPU       62.21
 TTTTTTTTTTTTTTTTTTTTTTTTTTTTTT MOQGAD      TELAPSE       64.68 TCPU       62.21
 TTTTTTTTTTTTTTTTTTTTTTTTTTTTTT SHELLXN     TELAPSE       66.73 TCPU       64.26
 TTTTTTTTTTTTTTTTTTTTTTTTTTTTTT MONMO3      TELAPSE       67.63 TCPU       65.16
 NUMERICALLY INTEGRATED DENSITY    319.9998976107
 TTTTTTTTTTTTTTTTTTTTTTTTTTTTTT NUMDFT      TELAPSE       67.88 TCPU       65.40
 CYC  13 ETOT(AU) -2.057752699862E+03 DETOT -4.59E-11 tst  1.37E-13 PX  4.51E-07
 TTTTTTTTTTTTTTTTTTTTTTTTTTTTTT DIIS        TELAPSE       67.91 TCPU       65.44
 DIIS TEST: 0.19930E-11 AT SCF   CYCLE  13 - DIIS ACTIVE - HISTORY:    13 CYCLES
 TTTTTTTTTTTTTTTTTTTTTTTTTTTTTT FDIK        TELAPSE       68.48 TCPU       66.01
 INSULATING STATE
 TOP OF VALENCE BANDS -    BAND    160; K   10; EIG -2.4900853E-01 AU
[...]
Note: The following floating-point exceptions are signalling: IEEE_UNDERFLOW_FLAG IEEE_DENORMAL
Note: The following floating-point exceptions are signalling: IEEE_UNDERFLOW_FLAG IEEE_DENORMAL
Note: The following floating-point exceptions are signalling: IEEE_UNDERFLOW_FLAG IEEE_DENORMAL
Note: The following floating-point exceptions are signalling: IEEE_UNDERFLOW_FLAG IEEE_DENORMAL
Note: The following floating-point exceptions are signalling: IEEE_UNDERFLOW_FLAG IEEE_DENORMAL
Note: The following floating-point exceptions are signalling: IEEE_UNDERFLOW_FLAG IEEE_DENORMAL
Note: The following floating-point exceptions are signalling: IEEE_UNDERFLOW_FLAG IEEE_DENORMAL
Note: The following floating-point exceptions are signalling: IEEE_UNDERFLOW_FLAG IEEE_DENORMAL
Note: The following floating-point exceptions are signalling: IEEE_UNDERFLOW_FLAG IEEE_DENORMAL
Note: The following floating-point exceptions are signalling: IEEE_UNDERFLOW_FLAG IEEE_DENORMAL
Note: The following floating-point exceptions are signalling: IEEE_UNDERFLOW_FLAG IEEE_DENORMAL
Note: The following floating-point exceptions are signalling: IEEE_UNDERFLOW_FLAG IEEE_DENORMAL
Note: The following floating-point exceptions are signalling: IEEE_UNDERFLOW_FLAG IEEE_DENORMAL
Note: The following floating-point exceptions are signalling: IEEE_UNDERFLOW_FLAG IEEE_DENORMAL
Note: The following floating-point exceptions are signalling: IEEE_UNDERFLOW_FLAG IEEE_DENORMAL
Note: The following floating-point exceptions are signalling: IEEE_UNDERFLOW_FLAG IEEE_DENORMAL
Note: The following floating-point exceptions are signalling: IEEE_UNDERFLOW_FLAG IEEE_DENORMAL
Note: The following floating-point exceptions are signalling: IEEE_UNDERFLOW_FLAG IEEE_DENORMAL
Note: The following floating-point exceptions are signalling: IEEE_UNDERFLOW_FLAG IEEE_DENORMAL
Note: The following floating-point exceptions are signalling: IEEE_UNDERFLOW_FLAG IEEE_DENORMAL
Note: The following floating-point exceptions are signalling: IEEE_UNDERFLOW_FLAG IEEE_DENORMAL
Note: The following floating-point exceptions are signalling: IEEE_UNDERFLOW_FLAG IEEE_DENORMAL
Note: The following floating-point exceptions are signalling: IEEE_UNDERFLOW_FLAG IEEE_DENORMAL
Note: The following floating-point exceptions are signalling: IEEE_UNDERFLOW_FLAG IEEE_DENORMAL
Note: The following floating-point exceptions are signalling: IEEE_UNDERFLOW_FLAG IEEE_DENORMAL
Note: The following floating-point exceptions are signalling: IEEE_UNDERFLOW_FLAG IEEE_DENORMAL
Note: The following floating-point exceptions are signalling: IEEE_UNDERFLOW_FLAG IEEE_DENORMAL
Note: The following floating-point exceptions are signalling: IEEE_UNDERFLOW_FLAG IEEE_DENORMAL
Note: The following floating-point exceptions are signalling: IEEE_UNDERFLOW_FLAG IEEE_DENORMAL
Note: The following floating-point exceptions are signalling: IEEE_UNDERFLOW_FLAG IEEE_DENORMAL
Note: The following floating-point exceptions are signalling: IEEE_UNDERFLOW_FLAG IEEE_DENORMAL
Note: The following floating-point exceptions are signalling: IEEE_UNDERFLOW_FLAG IEEE_DENORMAL
Note: The following floating-point exceptions are signalling: IEEE_UNDERFLOW_FLAG IEEE_DENORMAL
Note: The following floating-point exceptions are signalling: IEEE_UNDERFLOW_FLAG IEEE_DENORMAL
Note: The following floating-point exceptions are signalling: IEEE_UNDERFLOW_FLAG IEEE_DENORMAL
Note: The following floating-point exceptions are signalling: IEEE_UNDERFLOW_FLAG IEEE_DENORMAL
Note: The following floating-point exceptions are signalling: IEEE_UNDERFLOW_FLAG IEEE_DENORMAL
Note: The following floating-point exceptions are signalling: IEEE_UNDERFLOW_FLAG IEEE_DENORMAL
Note: The following floating-point exceptions are signalling: IEEE_UNDERFLOW_FLAG IEEE_DENORMAL
Note: The following floating-point exceptions are signalling: IEEE_UNDERFLOW_FLAG IEEE_DENORMAL
Note: The following floating-point exceptions are signalling: IEEE_UNDERFLOW_FLAG IEEE_DENORMAL
Note: The following floating-point exceptions are signalling: IEEE_UNDERFLOW_FLAG IEEE_DENORMAL
Note: The following floating-point exceptions are signalling: IEEE_UNDERFLOW_FLAG IEEE_DENORMAL
Note: The following floating-point exceptions are signalling: IEEE_UNDERFLOW_FLAG IEEE_DENORMAL
Note: The following floating-point exceptions are signalling: IEEE_UNDERFLOW_FLAG IEEE_DENORMAL
Note: The following floating-point exceptions are signalling: IEEE_UNDERFLOW_FLAG IEEE_DENORMAL
Note: The following floating-point exceptions are signalling: IEEE_UNDERFLOW_FLAG IEEE_DENORMAL
Note: The following floating-point exceptions are signalling: IEEE_UNDERFLOW_FLAG IEEE_DENORMAL
Note: The following floating-point exceptions are signalling: IEEE_UNDERFLOW_FLAG IEEE_DENORMAL
Note: The following floating-point exceptions are signalling: IEEE_UNDERFLOW_FLAG IEEE_DENORMAL
Note: The following floating-point exceptions are signalling: IEEE_UNDERFLOW_FLAG IEEE_DENORMAL
Note: The following floating-point exceptions are signalling: IEEE_UNDERFLOW_FLAG IEEE_DENORMAL
Note: The following floating-point exceptions are signalling: IEEE_UNDERFLOW_FLAG IEEE_DENORMAL
Note: The following floating-point exceptions are signalling: IEEE_UNDERFLOW_FLAG IEEE_DENORMAL
Note: The following floating-point exceptions are signalling: IEEE_UNDERFLOW_FLAG IEEE_DENORMAL
Note: The following floating-point exceptions are signalling: IEEE_UNDERFLOW_FLAG IEEE_DENORMAL
Note: The following floating-point exceptions are signalling: IEEE_UNDERFLOW_FLAG IEEE_DENORMAL
Note: The following floating-point exceptions are signalling: IEEE_UNDERFLOW_FLAG IEEE_DENORMAL
Note: The following floating-point exceptions are signalling: IEEE_UNDERFLOW_FLAG IEEE_DENORMAL
Note: The following floating-point exceptions are signalling: IEEE_UNDERFLOW_FLAG IEEE_DENORMAL
Note: The following floating-point exceptions are signalling: IEEE_UNDERFLOW_FLAG IEEE_DENORMAL
Note: The following floating-point exceptions are signalling: IEEE_UNDERFLOW_FLAG IEEE_DENORMAL
Note: The following floating-point exceptions are signalling: IEEE_UNDERFLOW_FLAG IEEE_DENORMAL
Note: The following floating-point exceptions are signalling: IEEE_UNDERFLOW_FLAG IEEE_DENORMAL
Note: The following floating-point exceptions are signalling: IEEE_UNDERFLOW_FLAG IEEE_DENORMAL
Note: The following floating-point exceptions are signalling: IEEE_UNDERFLOW_FLAG IEEE_DENORMAL
Note: The following floating-point exceptions are signalling: IEEE_UNDERFLOW_FLAG IEEE_DENORMAL
Note: The following floating-point exceptions are signalling: IEEE_UNDERFLOW_FLAG IEEE_DENORMAL
Note: The following floating-point exceptions are signalling: IEEE_UNDERFLOW_FLAG IEEE_DENORMAL
Note: The following floating-point exceptions are signalling: IEEE_UNDERFLOW_FLAG IEEE_DENORMAL
Note: The following floating-point exceptions are signalling: IEEE_UNDERFLOW_FLAG IEEE_DENORMAL
Note: The following floating-point exceptions are signalling: IEEE_UNDERFLOW_FLAG IEEE_DENORMAL
Note: The following floating-point exceptions are signalling: IEEE_UNDERFLOW_FLAG IEEE_DENORMAL
Note: The following floating-point exceptions are signalling: IEEE_UNDERFLOW_FLAG IEEE_DENORMAL
Note: The following floating-point exceptions are signalling: IEEE_UNDERFLOW_FLAG IEEE_DENORMAL
Note: The following floating-point exceptions are signalling: IEEE_UNDERFLOW_FLAG IEEE_DENORMAL
Note: The following floating-point exceptions are signalling: IEEE_UNDERFLOW_FLAG IEEE_DENORMAL
Note: The following floating-point exceptions are signalling: IEEE_UNDERFLOW_FLAG IEEE_DENORMAL
Note: The following floating-point exceptions are signalling: IEEE_UNDERFLOW_FLAG IEEE_DENORMAL
Note: The following floating-point exceptions are signalling: IEEE_UNDERFLOW_FLAG IEEE_DENORMAL
Note: The following floating-point exceptions are signalling: IEEE_UNDERFLOW_FLAG IEEE_DENORMAL
Note: The following floating-point exceptions are signalling: IEEE_UNDERFLOW_FLAG IEEE_DENORMAL
Note: The following floating-point exceptions are signalling: IEEE_UNDERFLOW_FLAG IEEE_DENORMAL
Note: The following floating-point exceptions are signalling: IEEE_UNDERFLOW_FLAG IEEE_DENORMAL
Note: The following floating-point exceptions are signalling: IEEE_UNDERFLOW_FLAG IEEE_DENORMAL
Note: The following floating-point exceptions are signalling: IEEE_UNDERFLOW_FLAG IEEE_DENORMAL
Note: The following floating-point exceptions are signalling: IEEE_UNDERFLOW_FLAG IEEE_DENORMAL
Note: The following floating-point exceptions are signalling: IEEE_UNDERFLOW_FLAG IEEE_DENORMAL
Note: The following floating-point exceptions are signalling: IEEE_UNDERFLOW_FLAG IEEE_DENORMAL
Note: The following floating-point exceptions are signalling: IEEE_UNDERFLOW_FLAG IEEE_DENORMAL
Note: The following floating-point exceptions are signalling: IEEE_UNDERFLOW_FLAG IEEE_DENORMAL
Note: The following floating-point exceptions are signalling: IEEE_UNDERFLOW_FLAG IEEE_DENORMAL
Note: The following floating-point exceptions are signalling: IEEE_UNDERFLOW_FLAG IEEE_DENORMAL
Note: The following floating-point exceptions are signalling: IEEE_UNDERFLOW_FLAG IEEE_DENORMAL
Note: The following floating-point exceptions are signalling: IEEE_UNDERFLOW_FLAG IEEE_DENORMAL
Note: The following floating-point exceptions are signalling: IEEE_UNDERFLOW_FLAG IEEE_DENORMAL
Note: The following floating-point exceptions are signalling: IEEE_UNDERFLOW_FLAG IEEE_DENORMAL
Note: The following floating-point exceptions are signalling: IEEE_UNDERFLOW_FLAG IEEE_DENORMAL
Note: The following floating-point exceptions are signalling: IEEE_UNDERFLOW_FLAG IEEE_DENORMAL
Note: The following floating-point exceptions are signalling: IEEE_UNDERFLOW_FLAG IEEE_DENORMAL
Note: The following floating-point exceptions are signalling: IEEE_UNDERFLOW_FLAG IEEE_DENORMAL
Note: The following floating-point exceptions are signalling: IEEE_UNDERFLOW_FLAG IEEE_DENORMAL
Note: The following floating-point exceptions are signalling: IEEE_UNDERFLOW_FLAG IEEE_DENORMAL
Note: The following floating-point exceptions are signalling: IEEE_UNDERFLOW_FLAG IEEE_DENORMAL
Note: The following floating-point exceptions are signalling: IEEE_UNDERFLOW_FLAG IEEE_DENORMAL
Note: The following floating-point exceptions are signalling: IEEE_UNDERFLOW_FLAG IEEE_DENORMAL
Note: The following floating-point exceptions are signalling: IEEE_UNDERFLOW_FLAG IEEE_DENORMAL
Note: The following floating-point exceptions are signalling: IEEE_UNDERFLOW_FLAG IEEE_DENORMAL
Note: The following floating-point exceptions are signalling: IEEE_UNDERFLOW_FLAG IEEE_DENORMAL
Note: The following floating-point exceptions are signalling: IEEE_UNDERFLOW_FLAG IEEE_DENORMAL
Note: The following floating-point exceptions are signalling: IEEE_UNDERFLOW_FLAG IEEE_DENORMAL
Note: The following floating-point exceptions are signalling: IEEE_UNDERFLOW_FLAG IEEE_DENORMAL
Note: The following floating-point exceptions are signalling: IEEE_UNDERFLOW_FLAG IEEE_DENORMAL
Note: The following floating-point exceptions are signalling: IEEE_UNDERFLOW_FLAG IEEE_DENORMAL
Note: The following floating-point exceptions are signalling: IEEE_UNDERFLOW_FLAG IEEE_DENORMAL
Note: The following floating-point exceptions are signalling: IEEE_UNDERFLOW_FLAG IEEE_DENORMAL
Note: The following floating-point exceptions are signalling: IEEE_UNDERFLOW_FLAG IEEE_DENORMAL
Note: The following floating-point exceptions are signalling: IEEE_UNDERFLOW_FLAG IEEE_DENORMAL
Note: The following floating-point exceptions are signalling: IEEE_UNDERFLOW_FLAG IEEE_DENORMAL
Note: The following floating-point exceptions are signalling: IEEE_UNDERFLOW_FLAG IEEE_DENORMAL
Note: The following floating-point exceptions are signalling: IEEE_UNDERFLOW_FLAG IEEE_DENORMAL
Note: The following floating-point exceptions are signalling: IEEE_UNDERFLOW_FLAG IEEE_DENORMAL
Note: The following floating-point exceptions are signalling: IEEE_UNDERFLOW_FLAG IEEE_DENORMAL
Note: The following floating-point exceptions are signalling: IEEE_UNDERFLOW_FLAG IEEE_DENORMAL
Note: The following floating-point exceptions are signalling: IEEE_UNDERFLOW_FLAG IEEE_DENORMAL
Note: The following floating-point exceptions are signalling: IEEE_UNDERFLOW_FLAG IEEE_DENORMAL
Note: The following floating-point exceptions are signalling: IEEE_UNDERFLOW_FLAG IEEE_DENORMAL
Note: The following floating-point exceptions are signalling: IEEE_UNDERFLOW_FLAG IEEE_DENORMAL
Note: The following floating-point exceptions are signalling: IEEE_UNDERFLOW_FLAG IEEE_DENORMAL
Note: The following floating-point exceptions are signalling: IEEE_UNDERFLOW_FLAG IEEE_DENORMAL
Note: The following floating-point exceptions are signalling: IEEE_UNDERFLOW_FLAG IEEE_DENORMAL
Note: The following floating-point exceptions are signalling: IEEE_UNDERFLOW_FLAG IEEE_DENORMAL
Note: The following floating-point exceptions are signalling: IEEE_UNDERFLOW_FLAG IEEE_DENORMAL
Note: The following floating-point exceptions are signalling: IEEE_UNDERFLOW_FLAG IEEE_DENORMAL
Note: The following floating-point exceptions are signalling: IEEE_UNDERFLOW_FLAG IEEE_DENORMAL
Note: The following floating-point exceptions are signalling: IEEE_UNDERFLOW_FLAG IEEE_DENORMAL
Note: The following floating-point exceptions are signalling: IEEE_UNDERFLOW_FLAG IEEE_DENORMAL
Note: The following floating-point exceptions are signalling: IEEE_UNDERFLOW_FLAG IEEE_DENORMAL
Note: The following floating-point exceptions are signalling: IEEE_UNDERFLOW_FLAG IEEE_DENORMAL
Note: The following floating-point exceptions are signalling: IEEE_UNDERFLOW_FLAG IEEE_DENORMAL
Note: The following floating-point exceptions are signalling: IEEE_UNDERFLOW_FLAG IEEE_DENORMAL
Note: The following floating-point exceptions are signalling: IEEE_UNDERFLOW_FLAG IEEE_DENORMAL
Note: The following floating-point exceptions are signalling: IEEE_UNDERFLOW_FLAG IEEE_DENORMAL
Note: The following floating-point exceptions are signalling: IEEE_UNDERFLOW_FLAG IEEE_DENORMAL
Note: The following floating-point exceptions are signalling: IEEE_UNDERFLOW_FLAG IEEE_DENORMAL
Note: The following floating-point exceptions are signalling: IEEE_UNDERFLOW_FLAG IEEE_DENORMAL
Note: The following floating-point exceptions are signalling: IEEE_UNDERFLOW_FLAG IEEE_DENORMAL
Note: The following floating-point exceptions are signalling: IEEE_UNDERFLOW_FLAG IEEE_DENORMAL
Note: The following floating-point exceptions are signalling: IEEE_UNDERFLOW_FLAG IEEE_DENORMAL
Note: The following floating-point exceptions are signalling: IEEE_UNDERFLOW_FLAG IEEE_DENORMAL
Note: The following floating-point exceptions are signalling: IEEE_UNDERFLOW_FLAG IEEE_DENORMAL
Note: The following floating-point exceptions are signalling: IEEE_UNDERFLOW_FLAG IEEE_DENORMAL
Note: The following floating-point exceptions are signalling: IEEE_UNDERFLOW_FLAG IEEE_DENORMAL
Note: The following floating-point exceptions are signalling: IEEE_UNDERFLOW_FLAG IEEE_DENORMAL
Note: The following floating-point exceptions are signalling: IEEE_UNDERFLOW_FLAG IEEE_DENORMAL
Note: The following floating-point exceptions are signalling: IEEE_UNDERFLOW_FLAG IEEE_DENORMAL
Note: The following floating-point exceptions are signalling: IEEE_UNDERFLOW_FLAG IEEE_DENORMAL
Note: The following floating-point exceptions are signalling: IEEE_UNDERFLOW_FLAG IEEE_DENORMAL
Note: The following floating-point exceptions are signalling: IEEE_UNDERFLOW_FLAG IEEE_DENORMAL
Note: The following floating-point exceptions are signalling: IEEE_UNDERFLOW_FLAG IEEE_DENORMAL
Note: The following floating-point exceptions are signalling: IEEE_UNDERFLOW_FLAG IEEE_DENORMAL
Note: The following floating-point exceptions are signalling: IEEE_UNDERFLOW_FLAG IEEE_DENORMAL
Note: The following floating-point exceptions are signalling: IEEE_UNDERFLOW_FLAG IEEE_DENORMAL
Note: The following floating-point exceptions are signalling: IEEE_UNDERFLOW_FLAG IEEE_DENORMAL
Note: The following floating-point exceptions are signalling: IEEE_UNDERFLOW_FLAG IEEE_DENORMAL
Note: The following floating-point exceptions are signalling: IEEE_UNDERFLOW_FLAG IEEE_DENORMAL
Note: The following floating-point exceptions are signalling: IEEE_UNDERFLOW_FLAG IEEE_DENORMAL
Note: The following floating-point exceptions are signalling: IEEE_UNDERFLOW_FLAG IEEE_DENORMAL
Note: The following floating-point exceptions are signalling: IEEE_UNDERFLOW_FLAG IEEE_DENORMAL
Note: The following floating-point exceptions are signalling: IEEE_UNDERFLOW_FLAG IEEE_DENORMAL
Note: The following floating-point exceptions are signalling: IEEE_UNDERFLOW_FLAG IEEE_DENORMAL
Note: The following floating-point exceptions are signalling: IEEE_UNDERFLOW_FLAG IEEE_DENORMAL
Note: The following floating-point exceptions are signalling: IEEE_UNDERFLOW_FLAG IEEE_DENORMAL
Note: The following floating-point exceptions are signalling: IEEE_UNDERFLOW_FLAG IEEE_DENORMAL
Note: The following floating-point exceptions are signalling: IEEE_UNDERFLOW_FLAG IEEE_DENORMAL
Note: The following floating-point exceptions are signalling: IEEE_UNDERFLOW_FLAG IEEE_DENORMAL
Note: The following floating-point exceptions are signalling: IEEE_UNDERFLOW_FLAG IEEE_DENORMAL
Note: The following floating-point exceptions are signalling: IEEE_UNDERFLOW_FLAG IEEE_DENORMAL
Note: The following floating-point exceptions are signalling: IEEE_UNDERFLOW_FLAG IEEE_DENORMAL
Note: The following floating-point exceptions are signalling: IEEE_UNDERFLOW_FLAG IEEE_DENORMAL
Note: The following floating-point exceptions are signalling: IEEE_UNDERFLOW_FLAG IEEE_DENORMAL
Note: The following floating-point exceptions are signalling: IEEE_UNDERFLOW_FLAG IEEE_DENORMAL
Note: The following floating-point exceptions are signalling: IEEE_UNDERFLOW_FLAG IEEE_DENORMAL
Note: The following floating-point exceptions are signalling: IEEE_UNDERFLOW_FLAG IEEE_DENORMAL
Note: The following floating-point exceptions are signalling: IEEE_UNDERFLOW_FLAG IEEE_DENORMAL
Note: The following floating-point exceptions are signalling: IEEE_UNDERFLOW_FLAG IEEE_DENORMAL
Note: The following floating-point exceptions are signalling: IEEE_UNDERFLOW_FLAG IEEE_DENORMAL
Note: The following floating-point exceptions are signalling: IEEE_UNDERFLOW_FLAG IEEE_DENORMAL
Note: The following floating-point exceptions are signalling: IEEE_UNDERFLOW_FLAG IEEE_DENORMAL
Note: The following floating-point exceptions are signalling: IEEE_UNDERFLOW_FLAG IEEE_DENORMAL
Note: The following floating-point exceptions are signalling: IEEE_UNDERFLOW_FLAG IEEE_DENORMAL
Note: The following floating-point exceptions are signalling: IEEE_UNDERFLOW_FLAG IEEE_DENORMAL
Note: The following floating-point exceptions are signalling: IEEE_UNDERFLOW_FLAG IEEE_DENORMAL
Note: The following floating-point exceptions are signalling: IEEE_UNDERFLOW_FLAG IEEE_DENORMAL
Note: The following floating-point exceptions are signalling: IEEE_UNDERFLOW_FLAG IEEE_DENORMAL
Note: The following floating-point exceptions are signalling: IEEE_UNDERFLOW_FLAG IEEE_DENORMAL
Note: The following floating-point exceptions are signalling: IEEE_UNDERFLOW_FLAG IEEE_DENORMAL
Note: The following floating-point exceptions are signalling: IEEE_UNDERFLOW_FLAG IEEE_DENORMAL
Note: The following floating-point exceptions are signalling: IEEE_UNDERFLOW_FLAG IEEE_DENORMAL
Note: The following floating-point exceptions are signalling: IEEE_UNDERFLOW_FLAG IEEE_DENORMAL
Note: The following floating-point exceptions are signalling: IEEE_UNDERFLOW_FLAG IEEE_DENORMAL
Note: The following floating-point exceptions are signalling: IEEE_UNDERFLOW_FLAG IEEE_DENORMAL
Note: The following floating-point exceptions are signalling: IEEE_UNDERFLOW_FLAG IEEE_DENORMAL
Note: The following floating-point exceptions are signalling: IEEE_UNDERFLOW_FLAG IEEE_DENORMAL
Note: The following floating-point exceptions are signalling: IEEE_UNDERFLOW_FLAG IEEE_DENORMAL
Note: The following floating-point exceptions are signalling: IEEE_UNDERFLOW_FLAG IEEE_DENORMAL
Note: The following floating-point exceptions are signalling: IEEE_UNDERFLOW_FLAG IEEE_DENORMAL
Note: The following floating-point exceptions are signalling: IEEE_UNDERFLOW_FLAG IEEE_DENORMAL
