Lmod has detected the following error: The following module(s) are unknown:
"epcc-job-env"

Please check the spelling or version number. Also try "module spider ..."
It is also possible your cache file is out-of-date; it may help to try:
  $ module --ignore-cache load "epcc-job-env"

Also make sure that all modulefiles written in TCL start with the string
#%Module




Warning: You have enabled access to software packages installed
by external parties on ARCHER2 or those that are not fully-supported.
The ARCHER2 CSE service does not test these packages. The service desk
will make reasonable efforts to assist with questions on the use of
these packages but some issues may not be able to be resolved by the
service and they may direct you to seek help from external parties.


         256 PROCESSORS WORKING

         
 *******************************************************************************
 *                                                                             *
 *                               CRYSTAL17                                     *
 *                      public : 1.0.2 - March 1st, 2018 STFC/Archer2 build    *
 *                       HTTP://WWW.CRYSTAL.UNITO.IT                           *
 *                                                                             *
 *                              MAIN AUTHORS                                   *
 *                                                                             *
 *  R. DOVESI(1,11), V.R. SAUNDERS(2), C. ROETTI(1,11), R. ORLANDO(1,11),      *
 *  C.M. ZICOVICH-WILSON(1,3), F. PASCALE(4), B. CIVALLERI(1,11),              *
 *  K. DOLL(5), N.M. HARRISON(2,6), I.J. BUSH(7), Ph. D'ARCO(8),               *
 *  M. LLUNELL(9), M. CAUSA'(10), Y. NOEL(8), L. MASCHIO(1,11), A. ERBA(1,11)  *
 *  M. RE'RAT(14), S. CASASSA(1,11)                                            *
 *                                                                             *
 *        CONTRIBUTIONS TO THE CODE HAVE ALSO BEEN GIVEN BY                    *
 *                                                                             *
 *  M. FERRABONE(1,11), M. DE LA PIERRE(1,11), M. FERRERO(1,11),               *
 *  J. BAIMA(1,11), E. ALBANESE(1,11), M.F. PEINTINGER(12), R. BAST(13),       *
 *  B. KIRTMAN(15), V. LACIVITA(1,11), R. DEMICHELIS(1,16)                     *
 *  G. BRANDEBURG(17), S. SALUSTRO(1,11), G. SANSONE(1,11)                     *
 *  M.T. RUGGIERO(18)                                                          *
 *                                                                             *
 * (1) THEORETICAL CHEMISTRY GROUP - UNIVERSITA' DI TORINO - TORINO (ITALY)    *
 * (2) COMPUTATIONAL SCIENCE & ENGINEERING DEPARTMENT - STFC DARESBURY (UK)    *
 * (3) UNIVERSIDAD AUTONOMA DEL ESTADO DE MORELOS - CUERNAVACA (MEXICO)        *
 * (4) UNIVERSITE' DE LORRAINE - NANCY (FRANCE)                                *
 * (5) UNIVERSITAET STUTTGART- STUTTGART (GERMANY)                             *
 * (6) IMPERIAL COLLEGE - LONDON (UK)                                          *
 * (7) OXFORD E-RESEARCH CENTRE - OXFORD (UK)                                  *
 * (8) UPMC - SORBONNE UNIVERSITES - PARIS (FRANCE)                            *
 * (9) UNIVERSIDAD DE BARCELONA - BARCELONA (SPAIN)                            *
 *(10) UNIVERSITA' DI NAPOLI "FEDERICO II" - NAPOLI (ITALY)                    *
 *(11) NIS - NANOSTRUCTURED INTERFACES AND SURFACES - TORINO (ITALY)           *
 *(12) MPI FUER CHEMISCHE ENERGIEKONVERSION - MUELHEIM AN DER RUHR (GERMANY)   *
 *(13) UNIVERSITY OF TROMSO - TROMSO (NORWAY)                                  *
 *(14) UNIVERSITE' DE PAU ET DES PAYS DE L'ADOUR - PAU (FRANCE)                *
 *(15) UNIVERSITY OF CALIFORNIA SANTA BARBARA - SANTA BARBARA (USA)            *
 *(16) CURTIN UNIVERSITY - PERTH (AUSTRALIA)                                   *
 *(17) UNIVERSITY COLLEGE LONDON - LONDON (UK)                                 *
 *(18) CAMBRIDGE UNIVERSITY - CAMBRIDGE (UK)                                   *
 *                                                                             *
 *******************************************************************************
 EEEEEEEEEE STARTING  DATE 05 03 2022 TIME 20:59:57.6
 F1 vol step1 freq - PBEh-3c                                                     

 GEOMETRY INPUT FROM EXTERNAL FILE (FORTRAN UNIT 34)
 3D - CRYSTAL 

 *******************************************************************************
 LATTICE PARAMETERS  (ANGSTROMS AND DEGREES) - PRIMITIVE CELL
       A          B          C        ALPHA      BETA     GAMMA        VOLUME
    7.17155    9.29244   12.69804    90.00000 116.43038  90.00000    757.762233

 NUMBER OF IRREDUCIBLE ATOMS IN THE CELL:   20

 CARTESIAN COORDINATES (ANGSTROM) - IRREDUCIBLE ATOMS AND SYMMETRY RELATED

 AT.IRR.  AT  AT.N.          X                   Y                   Z
     1     1     8    2.779733732141E+00 -6.575712549500E-01  2.422284366720E+00
     1     2     8    1.570181940039E+00  3.988646253149E+00  3.259759273574E+00
     1     3     8   -2.779733732141E+00  6.575712549500E-01 -2.422284366720E+00
     1     4     8   -1.570181940039E+00 -3.988646253149E+00 -3.259759273574E+00
     5     5     8    7.814725203770E-01  4.635675182670E+00 -2.249611712590E+00
     5     6     8    2.040158815251E+00 -1.054232542900E-02 -3.437955786883E+00
     5     7     8   -7.814725203770E-01 -4.635675182670E+00  2.249611712590E+00
     5     8     8   -2.040158815251E+00  1.054232542900E-02  3.437955786883E+00
     9     9     7    2.962879210139E+00 -4.241419646127E+00 -1.820550980430E+00
     9    10     7   -1.412478745120E-01  4.047978619720E-01 -3.867016519042E+00
     9    11     7   -2.962879210139E+00  4.241419646127E+00  1.820550980430E+00
     9    12     7    1.412478745120E-01 -4.047978619720E-01  3.867016519042E+00
    13    13     6    2.867874361104E+00 -3.364326812455E+00 -7.253103978370E-01
    13    14     6   -4.624302547700E-02  1.281890695644E+00 -4.962257101636E+00
    13    15     6   -2.867874361104E+00  3.364326812455E+00  7.253103978370E-01
    13    16     6    4.624302547700E-02 -1.281890695644E+00  4.962257101636E+00
    17    17     6    1.799831175720E+00 -3.332618257873E+00  1.649131431750E-01
    17    18     6    1.021800159907E+00  1.313599250226E+00 -5.852480642648E+00
    17    19     6   -1.799831175720E+00  3.332618257873E+00 -1.649131431750E-01
    17    20     6   -1.021800159907E+00 -1.313599250226E+00  5.852480642648E+00
    21    21     6    1.790716196093E+00 -2.425522720072E+00  1.214191039393E+00
    21    22     6    2.559199476087E+00  2.220694788027E+00  4.467852600901E+00
    21    23     6   -1.790716196093E+00  2.425522720072E+00 -1.214191039393E+00
    21    24     6   -2.559199476087E+00 -2.220694788027E+00 -4.467852600901E+00
    25    25     6    2.848287598160E+00 -1.541767561174E+00  1.406731215684E+00
    25    26     6    1.501628074020E+00  3.104449946925E+00  4.275312424611E+00
    25    27     6   -2.848287598160E+00  1.541767561174E+00 -1.406731215684E+00
    25    28     6   -1.501628074020E+00 -3.104449946925E+00 -4.275312424611E+00
    29    29     6   -3.240421348555E+00 -1.596398910497E+00  5.392802719060E-01
    29    30     6    4.187900129280E-01  3.049818597602E+00  5.148287227567E+00
    29    31     6    3.240421348555E+00  1.596398910497E+00 -5.392802719060E-01
    29    32     6   -4.187900129280E-01 -3.049818597602E+00 -5.148287227567E+00
    33    33     6   -3.237572490706E+00 -2.494132478926E+00 -5.120225656670E-01
    33    34     6   -1.112343181474E+00  2.152085029173E+00 -5.170021074628E+00
    33    35     6    3.237572490706E+00  2.494132478926E+00  5.120225656670E-01
    33    36     6    1.112343181474E+00 -2.152085029173E+00  5.170021074628E+00
    37    37     6    1.973058464745E+00  4.492631454721E+00 -2.529499363873E+00
    37    38     6    8.485728708820E-01 -1.535860533770E-01 -3.158068135600E+00
    37    39     6   -1.973058464745E+00 -4.492631454721E+00  2.529499363873E+00
    37    40     6   -8.485728708820E-01  1.535860533770E-01  3.158068135600E+00
    41    41     6    2.413678907146E+00  3.659586211565E+00 -3.699811780131E+00
    41    42     6    4.079524284810E-01 -9.866312965340E-01 -1.987755719341E+00
    41    43     6   -2.413678907146E+00 -3.659586211565E+00  3.699811780131E+00
    41    44     6   -4.079524284810E-01  9.866312965340E-01  1.987755719341E+00
    45    45     1    9.670618033090E-01 -4.008184550871E+00  6.055515855300E-02
    45    46     1    1.854569532318E+00  6.380329572280E-01 -5.748122658025E+00
    45    47     1   -9.670618033090E-01  4.008184550871E+00 -6.055515855300E-02
    45    48     1   -1.854569532318E+00 -6.380329572280E-01  5.748122658025E+00
    49    49     1    9.464251720480E-01 -2.418472230014E+00  1.892120653423E+00
    49    50     1    3.403490500132E+00  2.227745278085E+00  3.789922986871E+00
    49    51     1   -9.464251720480E-01  2.418472230014E+00 -1.892120653423E+00
    49    52     1   -3.403490500132E+00 -2.227745278085E+00 -3.789922986871E+00
    53    53     1   -2.402062337015E+00 -9.236589512320E-01  6.612926471510E-01
    53    54     1   -4.195689986130E-01  3.722558556867E+00  5.026274852322E+00
    53    55     1    2.402062337015E+00  9.236589512320E-01 -6.612926471510E-01
    53    56     1    4.195689986130E-01 -3.722558556867E+00 -5.026274852322E+00
    57    57     1   -2.385878641784E+00 -2.518243413054E+00 -1.179962357139E+00
    57    58     1   -1.964037030396E+00  2.127974095045E+00 -4.502081283155E+00
    57    59     1    2.385878641784E+00  2.518243413054E+00  1.179962357139E+00
    57    60     1    1.964037030396E+00 -2.127974095045E+00  4.502081283155E+00
    61    61     1   -3.510492133902E+00 -2.909503370640E-01  2.667049007088E+00
    61    62     1    6.888607982750E-01  4.355267171035E+00  3.020518492385E+00
    61    63     1    3.510492133902E+00  2.909503370640E-01 -2.667049007088E+00
    61    64     1   -6.888607982750E-01 -4.355267171035E+00 -3.020518492385E+00
    65    65     1   -3.269000235757E+00 -4.380644810822E+00 -2.167952540290E+00
    65    66     1   -1.080915436424E+00  2.655726972770E-01 -3.514091100005E+00
    65    67     1    3.269000235757E+00  4.380644810822E+00  2.167952540290E+00
    65    68     1    1.080915436424E+00 -2.655726972770E-01  3.514091100005E+00
    69    69     1    1.777548240180E+00  3.853758727349E+00 -4.561890958527E+00
    69    70     1    1.044083095447E+00 -7.924587807500E-01 -1.125676540946E+00
    69    71     1   -1.777548240180E+00 -3.853758727349E+00  4.561890958527E+00
    69    72     1   -1.044083095447E+00  7.924587807500E-01  1.125676540946E+00
    73    73     1    3.452103889818E+00  3.826367122656E+00 -3.978837571805E+00
    73    74     1   -6.304725541910E-01 -8.198503854430E-01 -1.708729927668E+00
    73    75     1   -3.452103889818E+00 -3.826367122656E+00  3.978837571805E+00
    73    76     1    6.304725541910E-01  8.198503854430E-01  1.708729927668E+00
    77    77     1    2.292747946060E+00  2.603003002558E+00 -3.464233830802E+00
    77    78     1    5.288833895670E-01 -2.043214505541E+00 -2.223333668671E+00
    77    79     1   -2.292747946060E+00 -2.603003002558E+00  3.464233830802E+00
    77    80     1   -5.288833895670E-01  2.043214505541E+00  2.223333668671E+00

 SPACE  GROUP  N.                     :   14
 NUMBER OF SYMMETRY OPERATORS         :    4
 *******************************************************************************
 LATTICE PARAMETERS (ANGSTROMS AND DEGREES) - BOHR = 0.5291772083 ANGSTROM
 PRIMITIVE CELL - CENTRING CODE 1/0 VOLUME=   757.762233 - DENSITY  1.324 g/cm^3
         A              B              C           ALPHA      BETA       GAMMA 
     7.17154914     9.29243502    12.69803567    90.000000 116.430377  90.000000
 *******************************************************************************
 ATOMS IN THE ASYMMETRIC UNIT   20 - ATOMS IN THE UNIT CELL:   80
     ATOM                 X/A                 Y/B                 Z/C    
 *******************************************************************************
      1 T   8 O    -4.446158718494E-01 -7.076414888063E-02  2.132152480536E-01
      2 F   8 O     4.446158718503E-01  4.292358511193E-01  2.867847519484E-01
      3 F   8 O     4.446158718494E-01  7.076414888063E-02 -2.132152480536E-01
      4 F   8 O    -4.446158718503E-01 -4.292358511193E-01 -2.867847519484E-01
      5 T   8 O    -4.667044026445E-02  4.988654937687E-01 -1.977883791047E-01
      6 F   8 O     4.667044026328E-02 -1.134506231211E-03 -3.022116208973E-01
      7 F   8 O     4.667044026445E-02 -4.988654937687E-01  1.977883791047E-01
      8 F   8 O    -4.667044026328E-02  1.134506231211E-03  3.022116208973E-01
      9 T   7 N     2.873134499570E-01 -4.564379130694E-01 -1.599070166260E-01
     10 F   7 N    -2.873134499582E-01  4.356208693053E-02 -3.400929833759E-01
     11 F   7 N    -2.873134499570E-01  4.564379130694E-01  1.599070166260E-01
     12 F   7 N     2.873134499582E-01 -4.356208693053E-02  3.400929833759E-01
     13 T   6 C     3.498551857009E-01 -3.620500769271E-01 -6.359290216145E-02
     14 F   6 C    -3.498551857022E-01  1.379499230728E-01 -4.364070978406E-01
     15 F   6 C    -3.498551857009E-01  3.620500769271E-01  6.359290216145E-02
     16 F   6 C     3.498551857022E-01 -1.379499230728E-01  4.364070978406E-01
     17 T   6 C     2.624768021534E-01 -3.586377792326E-01  1.462514757704E-02
     18 F   6 C    -2.624768021548E-01  1.413622207673E-01  4.853748524209E-01
     19 F   6 C    -2.624768021534E-01  3.586377792326E-01 -1.462514757704E-02
     20 F   6 C     2.624768021548E-01 -1.413622207673E-01 -4.853748524209E-01
     21 T   6 C     3.338188235127E-01 -2.610212195020E-01  1.069029077618E-01
     22 F   6 C    -3.338188235118E-01  2.389787804979E-01  3.930970922402E-01
     23 F   6 C    -3.338188235127E-01  2.610212195020E-01 -1.069029077618E-01
     24 F   6 C     3.338188235118E-01 -2.389787804979E-01 -3.930970922402E-01
     25 T   6 C     4.946672930107E-01 -1.659164210980E-01  1.239074251239E-01
     26 F   6 C    -4.946672930098E-01  3.340835789019E-01  3.760925748781E-01
     27 F   6 C    -4.946672930107E-01  1.659164210980E-01 -1.239074251239E-01
     28 F   6 C     4.946672930098E-01 -3.340835789019E-01 -3.760925748781E-01
     29 T   6 C    -4.146968687168E-01 -1.717955420419E-01  4.720731181242E-02
     30 F   6 C     4.146968687181E-01  3.282044579580E-01  4.527926881896E-01
     31 F   6 C     4.146968687168E-01  1.717955420419E-01 -4.720731181242E-02
     32 F   6 C    -4.146968687181E-01 -3.282044579580E-01 -4.527926881896E-01
     33 T   6 C    -4.870531042901E-01 -2.684046188731E-01 -4.524895559281E-02
     34 F   6 C     4.870531042891E-01  2.315953811268E-01 -4.547510444092E-01
     35 F   6 C     4.870531042901E-01  2.684046188731E-01  4.524895559281E-02
     36 F   6 C    -4.870531042891E-01 -2.315953811268E-01  4.547510444092E-01
     37 T   6 C     1.001785833389E-01  4.834719260225E-01 -2.223222837998E-01
     38 F   6 C    -1.001785833402E-01 -1.652807397730E-02 -2.776777162023E-01
     39 F   6 C    -1.001785833389E-01 -4.834719260225E-01  2.223222837998E-01
     40 F   6 C     1.001785833402E-01  1.652807397730E-02  2.776777162023E-01
     41 T   6 C     8.065266460665E-02  3.938242457639E-01 -3.252151527456E-01
     42 F   6 C    -8.065266460790E-02 -1.061757542360E-01 -1.747848472563E-01
     43 F   6 C    -8.065266460665E-02 -3.938242457639E-01  3.252151527456E-01
     44 F   6 C     8.065266460790E-02  1.061757542360E-01  1.747848472563E-01
     45 T   1 H     1.390891934867E-01 -4.313384536866E-01  5.391010100274E-03
     46 F   1 H    -1.390891934879E-01  6.866154631328E-02  4.946089898978E-01
     47 F   1 H    -1.390891934867E-01  4.313384536866E-01 -5.391010100274E-03
     48 F   1 H     1.390891934879E-01 -6.866154631328E-02 -4.946089898978E-01
     49 T   1 H     2.629609104889E-01 -2.602624851073E-01  1.664659990976E-01
     50 F   1 H    -2.629609104881E-01  2.397375148926E-01  3.335340009044E-01
     51 F   1 H    -2.629609104889E-01  2.602624851073E-01 -1.664659990976E-01
     52 F   1 H     2.629609104881E-01 -2.397375148926E-01 -3.335340009044E-01
     53 T   1 H    -2.893078010267E-01 -9.939902185183E-02  5.799443713527E-02
     54 F   1 H     2.893078010279E-01  4.006009781481E-01  4.420055628668E-01
     55 F   1 H     2.893078010267E-01  9.939902185183E-02 -5.799443713527E-02
     56 F   1 H    -2.893078010279E-01 -4.006009781481E-01 -4.420055628668E-01
     57 T   1 H    -4.144712185522E-01 -2.709993030528E-01 -1.039329940170E-01
     58 F   1 H     4.144712185514E-01  2.290006969471E-01 -3.960670059849E-01
     59 F   1 H     4.144712185522E-01  2.709993030528E-01  1.039329940170E-01
     60 F   1 H    -4.144712185514E-01 -2.290006969471E-01  3.960670059849E-01
     61 T   1 H    -3.051212845200E-01 -3.131045162616E-02  2.343148947540E-01
     62 F   1 H     3.051212845213E-01  4.686895483737E-01  2.656851052480E-01
     63 F   1 H     3.051212845200E-01  3.131045162616E-02 -2.343148947540E-01
     64 F   1 H    -3.051212845213E-01 -4.686895483737E-01 -2.656851052480E-01
     65 T   1 H     3.939671092441E-01 -4.714205483477E-01 -1.908812669780E-01
     66 F   1 H    -3.939671092452E-01  2.857945165223E-02 -3.091187330240E-01
     67 F   1 H    -3.939671092441E-01  4.714205483477E-01  1.908812669780E-01
     68 F   1 H     3.939671092452E-01 -2.857945165223E-02  3.091187330240E-01
     69 T   1 H    -6.774198716676E-02  4.147200083326E-01 -4.010734954940E-01
     70 F   1 H     6.774198716544E-02 -8.527999166725E-02 -9.892650450806E-02
     71 F   1 H     6.774198716676E-02 -4.147200083326E-01  4.010734954940E-01
     72 F   1 H    -6.774198716544E-02  8.527999166725E-02  9.892650450806E-02
     73 T   1 H     2.061964142076E-01  4.117722766945E-01 -3.496836364786E-01
     74 F   1 H    -2.061964142089E-01 -8.822772330543E-02 -1.503163635235E-01
     75 F   1 H    -2.061964142076E-01 -4.117722766945E-01  3.496836364786E-01
     76 F   1 H     2.061964142089E-01  8.822772330543E-02  1.503163635235E-01
     77 T   1 H     8.008638692987E-02  2.801206570743E-01 -3.045055241290E-01
     78 F   1 H    -8.008638693119E-02 -2.198793429256E-01 -1.954944758730E-01
     79 F   1 H    -8.008638692987E-02 -2.801206570743E-01  3.045055241290E-01
     80 F   1 H     8.008638693119E-02  2.198793429256E-01  1.954944758730E-01

 T = ATOM BELONGING TO THE ASYMMETRIC UNIT
 *******************************************************************************
 * GEOMETRY EDITING - INPUT COORDINATES ARE GIVEN IN ANGSTROM         
 *******************************************************************************

 GEOMETRY NOW FULLY CONSISTENT WITH THE GROUP

 FRQFRQFRQFRQFRQFRQFRQFRQFRQFRQFRQFRQFRQFRQFRQFRQFRQFRQFRQFRQFRQFRQFRQFRQFRQFRQ

                       FREQUENCY CALCULATION

 INFORMATION **** INPFREQ ****  PRINTING OF EIGENVECTORS
 INFORMATION **** INPFREQ **** NEW DEFAULT - IMPOSING ECKART CONDITIONS TO THE HESSIAN

 GCALCO - MAX INDICES DIRECT LATTICE VECTOR    20    14    11
 NO.OF VECTORS CREATED 6999 STARS 1868 RMAX   204.27049 BOHR

 GEOMETRY FOR WAVE FUNCTION - DIMENSIONALITY OF THE SYSTEM    3
 (NON PERIODIC DIRECTION: LATTICE PARAMETER FORMALLY SET TO 500)
 *******************************************************************************
 LATTICE PARAMETERS (ANGSTROMS AND DEGREES) - BOHR = 0.5291772083 ANGSTROM
 PRIMITIVE CELL - CENTRING CODE 1/0 VOLUME=   757.762233 - DENSITY  1.324 g/cm^3
         A              B              C           ALPHA      BETA       GAMMA 
     7.17154914     9.29243502    12.69803567    90.000000 116.430377  90.000000
 *******************************************************************************
 ATOMS IN THE ASYMMETRIC UNIT   20 - ATOMS IN THE UNIT CELL:   80
     ATOM                 X/A                 Y/B                 Z/C    
 *******************************************************************************
      1 T   8 O    -4.446158718494E-01 -7.076414888063E-02  2.132152480536E-01
      2 F   8 O     4.446158718501E-01  4.292358511194E-01  2.867847519481E-01
      3 F   8 O     4.446158718494E-01  7.076414888063E-02 -2.132152480536E-01
      4 F   8 O    -4.446158718488E-01 -4.292358511194E-01 -2.867847519446E-01
      5 T   8 O    -4.667044026445E-02  4.988654937687E-01 -1.977883791047E-01
      6 F   8 O     4.667044026514E-02 -1.134506231319E-03 -3.022116208935E-01
      7 F   8 O     4.667044026445E-02 -4.988654937687E-01  1.977883791047E-01
      8 F   8 O    -4.667044026377E-02  1.134506231318E-03  3.022116208970E-01
      9 T   7 N     2.873134499570E-01 -4.564379130694E-01 -1.599070166260E-01
     10 F   7 N    -2.873134499563E-01  4.356208693064E-02 -3.400929833722E-01
     11 F   7 N    -2.873134499570E-01  4.564379130694E-01  1.599070166260E-01
     12 F   7 N     2.873134499576E-01 -4.356208693064E-02  3.400929833757E-01
     13 T   6 C     3.498551857009E-01 -3.620500769271E-01 -6.359290216145E-02
     14 F   6 C    -3.498551857002E-01  1.379499230729E-01 -4.364070978368E-01
     15 F   6 C    -3.498551857009E-01  3.620500769271E-01  6.359290216145E-02
     16 F   6 C     3.498551857015E-01 -1.379499230729E-01  4.364070978403E-01
     17 T   6 C     2.624768021534E-01 -3.586377792326E-01  1.462514757704E-02
     18 F   6 C    -2.624768021528E-01  1.413622207674E-01  4.853748524247E-01
     19 F   6 C    -2.624768021534E-01  3.586377792326E-01 -1.462514757704E-02
     20 F   6 C     2.624768021541E-01 -1.413622207674E-01 -4.853748524212E-01
     21 T   6 C     3.338188235127E-01 -2.610212195020E-01  1.069029077618E-01
     22 F   6 C    -3.338188235120E-01  2.389787804980E-01  3.930970922400E-01
     23 F   6 C    -3.338188235127E-01  2.610212195020E-01 -1.069029077618E-01
     24 F   6 C     3.338188235134E-01 -2.389787804980E-01 -3.930970922365E-01
     25 T   6 C     4.946672930107E-01 -1.659164210980E-01  1.239074251239E-01
     26 F   6 C    -4.946672930100E-01  3.340835789020E-01  3.760925748778E-01
     27 F   6 C    -4.946672930107E-01  1.659164210980E-01 -1.239074251239E-01
     28 F   6 C     4.946672930114E-01 -3.340835789020E-01 -3.760925748743E-01
     29 T   6 C    -4.146968687168E-01 -1.717955420419E-01  4.720731181242E-02
     30 F   6 C     4.146968687175E-01  3.282044579581E-01  4.527926881893E-01
     31 F   6 C     4.146968687168E-01  1.717955420419E-01 -4.720731181242E-02
     32 F   6 C    -4.146968687161E-01 -3.282044579581E-01 -4.527926881858E-01
     33 T   6 C    -4.870531042901E-01 -2.684046188731E-01 -4.524895559281E-02
     34 F   6 C     4.870531042907E-01  2.315953811269E-01 -4.547510444054E-01
     35 F   6 C     4.870531042901E-01  2.684046188731E-01  4.524895559281E-02
     36 F   6 C    -4.870531042894E-01 -2.315953811269E-01  4.547510444089E-01
     37 T   6 C     1.001785833389E-01  4.834719260225E-01 -2.223222837998E-01
     38 F   6 C    -1.001785833382E-01 -1.652807397751E-02 -2.776777161985E-01
     39 F   6 C    -1.001785833389E-01 -4.834719260225E-01  2.223222837998E-01
     40 F   6 C     1.001785833396E-01  1.652807397751E-02  2.776777162020E-01
     41 T   6 C     8.065266460665E-02  3.938242457639E-01 -3.252151527456E-01
     42 F   6 C    -8.065266460597E-02 -1.061757542361E-01 -1.747848472526E-01
     43 F   6 C    -8.065266460665E-02 -3.938242457639E-01  3.252151527456E-01
     44 F   6 C     8.065266460734E-02  1.061757542361E-01  1.747848472561E-01
     45 T   1 H     1.390891934867E-01 -4.313384536866E-01  5.391010100274E-03
     46 F   1 H    -1.390891934860E-01  6.866154631339E-02  4.946089899015E-01
     47 F   1 H    -1.390891934867E-01  4.313384536866E-01 -5.391010100274E-03
     48 F   1 H     1.390891934874E-01 -6.866154631339E-02 -4.946089898980E-01
     49 T   1 H     2.629609104889E-01 -2.602624851073E-01  1.664659990976E-01
     50 F   1 H    -2.629609104882E-01  2.397375148927E-01  3.335340009042E-01
     51 F   1 H    -2.629609104889E-01  2.602624851073E-01 -1.664659990976E-01
     52 F   1 H     2.629609104896E-01 -2.397375148927E-01 -3.335340009006E-01
     53 T   1 H    -2.893078010267E-01 -9.939902185183E-02  5.799443713527E-02
     54 F   1 H     2.893078010274E-01  4.006009781482E-01  4.420055628665E-01
     55 F   1 H     2.893078010267E-01  9.939902185183E-02 -5.799443713527E-02
     56 F   1 H    -2.893078010260E-01 -4.006009781482E-01 -4.420055628630E-01
     57 T   1 H    -4.144712185522E-01 -2.709993030528E-01 -1.039329940170E-01
     58 F   1 H     4.144712185529E-01  2.290006969472E-01 -3.960670059812E-01
     59 F   1 H     4.144712185522E-01  2.709993030528E-01  1.039329940170E-01
     60 F   1 H    -4.144712185515E-01 -2.290006969472E-01  3.960670059847E-01
     61 T   1 H    -3.051212845200E-01 -3.131045162616E-02  2.343148947540E-01
     62 F   1 H     3.051212845207E-01  4.686895483738E-01  2.656851052477E-01
     63 F   1 H     3.051212845200E-01  3.131045162616E-02 -2.343148947540E-01
     64 F   1 H    -3.051212845193E-01 -4.686895483738E-01 -2.656851052442E-01
     65 T   1 H     3.939671092441E-01 -4.714205483477E-01 -1.908812669780E-01
     66 F   1 H    -3.939671092434E-01  2.857945165234E-02 -3.091187330202E-01
     67 F   1 H    -3.939671092441E-01  4.714205483477E-01  1.908812669780E-01
     68 F   1 H     3.939671092448E-01 -2.857945165234E-02  3.091187330237E-01
     69 T   1 H    -6.774198716676E-02  4.147200083326E-01 -4.010734954940E-01
     70 F   1 H     6.774198716744E-02 -8.527999166736E-02 -9.892650450428E-02
     71 F   1 H     6.774198716676E-02 -4.147200083326E-01  4.010734954940E-01
     72 F   1 H    -6.774198716607E-02  8.527999166736E-02  9.892650450779E-02
     73 T   1 H     2.061964142076E-01  4.117722766945E-01 -3.496836364786E-01
     74 F   1 H    -2.061964142069E-01 -8.822772330554E-02 -1.503163635197E-01
     75 F   1 H    -2.061964142076E-01 -4.117722766945E-01  3.496836364786E-01
     76 F   1 H     2.061964142083E-01  8.822772330554E-02  1.503163635232E-01
     77 T   1 H     8.008638692987E-02  2.801206570743E-01 -3.045055241290E-01
     78 F   1 H    -8.008638692919E-02 -2.198793429257E-01 -1.954944758692E-01
     79 F   1 H    -8.008638692987E-02 -2.801206570743E-01  3.045055241290E-01
     80 F   1 H     8.008638693056E-02  2.198793429257E-01  1.954944758727E-01

 T = ATOM BELONGING TO THE ASYMMETRIC UNIT

 ****    4 SYMMOPS - TRANSLATORS IN FRACTIONAL UNITS
 **** MATRICES AND TRANSLATORS IN THE CRYSTALLOGRAPHIC REFERENCE FRAME
   V INV                    ROTATION MATRICES                   TRANSLATORS
   1   1  1.00  0.00  0.00  0.00  1.00  0.00  0.00  0.00  1.00  0.00  0.00  0.00
   2   2 -1.00  0.00 -0.00  0.00  1.00  0.00  0.00  0.00 -1.00  0.00  0.50  0.50
   3   3 -1.00 -0.00 -0.00 -0.00 -1.00 -0.00  0.00  0.00 -1.00  0.00  0.00  0.00
   4   4  1.00 -0.00  0.00 -0.00 -1.00 -0.00 -0.00 -0.00  1.00  0.00  0.50  0.50

 DIRECT LATTICE VECTORS CARTESIAN COMPONENTS (ANGSTROM)
          X                    Y                    Z
   0.717154700781E+01   0.438625824326E-15  -0.552385917837E-02
  -0.971476080772E-18   0.929243501620E+01  -0.437592460215E-18
  -0.564326267125E+01   0.777255668104E-15   0.113751349989E+02


 CARTESIAN COORDINATES - PRIMITIVE CELL
 *******************************************************************************
 *      ATOM          X(ANGSTROM)         Y(ANGSTROM)         Z(ANGSTROM)
 *******************************************************************************
    1     8 O     2.779733732141E+00 -6.575712549500E-01  2.422284366720E+00
    2     8 O     1.570181940039E+00  3.988646253150E+00  3.259759273572E+00
    3     8 O    -2.779733732141E+00  6.575712549500E-01 -2.422284366720E+00
    4     8 O    -1.570181940049E+00 -3.988646253150E+00 -3.259759273532E+00
    5     8 O     7.814725203770E-01  4.635675182670E+00 -2.249611712590E+00
    6     8 O     2.040158815243E+00 -1.054232543000E-02 -3.437955786840E+00
    7     8 O    -7.814725203770E-01 -4.635675182670E+00  2.249611712590E+00
    8     8 O    -2.040158815253E+00  1.054232543000E-02  3.437955786880E+00
    9     7 N     2.962879210139E+00 -4.241419646127E+00 -1.820550980430E+00
   10     7 N    -1.412478745190E-01  4.047978619730E-01 -3.867016519000E+00
   11     7 N    -2.962879210139E+00  4.241419646127E+00  1.820550980430E+00
   12     7 N     1.412478745090E-01 -4.047978619730E-01  3.867016519040E+00
   13     6 C     2.867874361104E+00 -3.364326812455E+00 -7.253103978370E-01
   14     6 C    -4.624302548400E-02  1.281890695645E+00 -4.962257101593E+00
   15     6 C    -2.867874361104E+00  3.364326812455E+00  7.253103978370E-01
   16     6 C     4.624302547400E-02 -1.281890695645E+00  4.962257101633E+00
   17     6 C     1.799831175720E+00 -3.332618257873E+00  1.649131431750E-01
   18     6 C     1.021800159900E+00  1.313599250227E+00 -5.852480642605E+00
   19     6 C    -1.799831175720E+00  3.332618257873E+00 -1.649131431750E-01
   20     6 C    -1.021800159910E+00 -1.313599250227E+00  5.852480642645E+00
   21     6 C     1.790716196093E+00 -2.425522720072E+00  1.214191039393E+00
   22     6 C     2.559199476087E+00  2.220694788028E+00  4.467852600899E+00
   23     6 C    -1.790716196093E+00  2.425522720072E+00 -1.214191039393E+00
   24     6 C    -2.559199476097E+00 -2.220694788028E+00 -4.467852600859E+00
   25     6 C     2.848287598160E+00 -1.541767561174E+00  1.406731215684E+00
   26     6 C     1.501628074020E+00  3.104449946926E+00  4.275312424608E+00
   27     6 C    -2.848287598160E+00  1.541767561174E+00 -1.406731215684E+00
   28     6 C    -1.501628074030E+00 -3.104449946926E+00 -4.275312424568E+00
   29     6 C    -3.240421348555E+00 -1.596398910497E+00  5.392802719060E-01
   30     6 C     4.187900129250E-01  3.049818597603E+00  5.148287227564E+00
   31     6 C     3.240421348555E+00  1.596398910497E+00 -5.392802719060E-01
   32     6 C    -4.187900129350E-01 -3.049818597603E+00 -5.148287227524E+00
   33     6 C    -3.237572490706E+00 -2.494132478926E+00 -5.120225656670E-01
   34     6 C    -1.112343181484E+00  2.152085029174E+00 -5.170021074585E+00
   35     6 C     3.237572490706E+00  2.494132478926E+00  5.120225656670E-01
   36     6 C     1.112343181474E+00 -2.152085029174E+00  5.170021074625E+00
   37     6 C     1.973058464745E+00  4.492631454721E+00 -2.529499363873E+00
   38     6 C     8.485728708750E-01 -1.535860533790E-01 -3.158068135557E+00
   39     6 C    -1.973058464745E+00 -4.492631454721E+00  2.529499363873E+00
   40     6 C    -8.485728708850E-01  1.535860533790E-01  3.158068135597E+00
   41     6 C     2.413678907146E+00  3.659586211565E+00 -3.699811780131E+00
   42     6 C     4.079524284740E-01 -9.866312965350E-01 -1.987755719299E+00
   43     6 C    -2.413678907146E+00 -3.659586211565E+00  3.699811780131E+00
   44     6 C    -4.079524284840E-01  9.866312965350E-01  1.987755719339E+00
   45     1 H     9.670618033090E-01 -4.008184550871E+00  6.055515855300E-02
   46     1 H     1.854569532311E+00  6.380329572290E-01 -5.748122657983E+00
   47     1 H    -9.670618033090E-01  4.008184550871E+00 -6.055515855300E-02
   48     1 H    -1.854569532321E+00 -6.380329572290E-01  5.748122658023E+00
   49     1 H     9.464251720480E-01 -2.418472230014E+00  1.892120653423E+00
   50     1 H     3.403490500132E+00  2.227745278086E+00  3.789922986869E+00
   51     1 H    -9.464251720480E-01  2.418472230014E+00 -1.892120653423E+00
   52     1 H    -3.403490500142E+00 -2.227745278086E+00 -3.789922986829E+00
   53     1 H    -2.402062337015E+00 -9.236589512320E-01  6.612926471510E-01
   54     1 H    -4.195689986150E-01  3.722558556868E+00  5.026274852319E+00
   55     1 H     2.402062337015E+00  9.236589512320E-01 -6.612926471510E-01
   56     1 H     4.195689986050E-01 -3.722558556868E+00 -5.026274852279E+00
   57     1 H    -2.385878641784E+00 -2.518243413054E+00 -1.179962357139E+00
   58     1 H    -1.964037030406E+00  2.127974095046E+00 -4.502081283113E+00
   59     1 H     2.385878641784E+00  2.518243413054E+00  1.179962357139E+00
   60     1 H     1.964037030396E+00 -2.127974095046E+00  4.502081283153E+00
   61     1 H    -3.510492133902E+00 -2.909503370640E-01  2.667049007088E+00
   62     1 H     6.888607982720E-01  4.355267171036E+00  3.020518492382E+00
   63     1 H     3.510492133902E+00  2.909503370640E-01 -2.667049007088E+00
   64     1 H    -6.888607982820E-01 -4.355267171036E+00 -3.020518492342E+00
   65     1 H    -3.269000235757E+00 -4.380644810822E+00 -2.167952540290E+00
   66     1 H    -1.080915436433E+00  2.655726972780E-01 -3.514091099962E+00
   67     1 H     3.269000235757E+00  4.380644810822E+00  2.167952540290E+00
   68     1 H     1.080915436423E+00 -2.655726972780E-01  3.514091100002E+00
   69     1 H     1.777548240180E+00  3.853758727349E+00 -4.561890958527E+00
   70     1 H     1.044083095440E+00 -7.924587807510E-01 -1.125676540903E+00
   71     1 H    -1.777548240180E+00 -3.853758727349E+00  4.561890958527E+00
   72     1 H    -1.044083095450E+00  7.924587807510E-01  1.125676540943E+00
   73     1 H     3.452103889818E+00  3.826367122656E+00 -3.978837571805E+00
   74     1 H    -6.304725541980E-01 -8.198503854440E-01 -1.708729927625E+00
   75     1 H    -3.452103889818E+00 -3.826367122656E+00  3.978837571805E+00
   76     1 H     6.304725541880E-01  8.198503854440E-01  1.708729927665E+00
   77     1 H     2.292747946060E+00  2.603003002558E+00 -3.464233830802E+00
   78     1 H     5.288833895600E-01 -2.043214505542E+00 -2.223333668628E+00
   79     1 H    -2.292747946060E+00 -2.603003002558E+00  3.464233830802E+00
   80     1 H    -5.288833895700E-01  2.043214505542E+00  2.223333668668E+00

 *******************************************************************************
 STARTING BASIS SET HANDLING 
 *******************************************************************************

 Loading internal basis set: DEF2-MSVP           

 Please cite in your publication:
 Fully Optimized Contracted Gaussian Basis Sets for Atoms Li to Kr. A. Schäfer, H. Horn and R. Ahlrichs; J. Chem. Phys. 97, 2571 (1992).                                                                                                                         
 S. Grimme, J. G. Brandenburg, C. Bannwarth, and A. Hansen, J. Chem. Phys., 143, 054107 (2015).                                                                                                                                                                  

 *******************************************************************************
 LOCAL ATOMIC FUNCTIONS BASIS SET
 *******************************************************************************
   ATOM   X(AU)   Y(AU)   Z(AU)  N. TYPE  EXPONENT  S COEF   P COEF   D/F/G COEF
 *******************************************************************************
   1 O    5.253  -1.243   4.577
                                  1 S  
                                         6.773E+03 1.727E-03 0.000E+00 0.000E+00
                                         1.017E+03 1.325E-02 0.000E+00 0.000E+00
                                         2.313E+02 6.603E-02 0.000E+00 0.000E+00
                                         6.501E+01 2.353E-01 0.000E+00 0.000E+00
                                         2.050E+01 5.498E-01 0.000E+00 0.000E+00
                                  2 S  
                                         6.716E+00 1.000E+00 0.000E+00 0.000E+00
                                  3 S  
                                         1.147E+00 1.000E+00 0.000E+00 0.000E+00
                                  4 S  
                                         3.342E-01 1.000E+00 0.000E+00 0.000E+00
                           5-     7 P  
                                         1.769E+01 0.000E+00 4.359E-02 0.000E+00
                                         3.854E+00 0.000E+00 2.318E-01 0.000E+00
                                         1.047E+00 0.000E+00 5.146E-01 0.000E+00
                           8-    10 P  
                                         2.759E-01 0.000E+00 1.000E+00 0.000E+00
                          11-    15 D  
                                         8.000E-01 0.000E+00 0.000E+00 1.000E+00
   2 O    2.967   7.537   6.160
   3 O   -5.253   1.243  -4.577
   4 O   -2.967  -7.537  -6.160
   5 O    1.477   8.760  -4.251
   6 O    3.855  -0.020  -6.497
   7 O   -1.477  -8.760   4.251
   8 O   -3.855   0.020   6.497
   9 N    5.599  -8.015  -3.440
                                121 S  
                                         5.072E+03 1.707E-03 0.000E+00 0.000E+00
                                         7.614E+02 1.309E-02 0.000E+00 0.000E+00
                                         1.732E+02 6.510E-02 0.000E+00 0.000E+00
                                         4.867E+01 2.305E-01 0.000E+00 0.000E+00
                                         1.533E+01 5.330E-01 0.000E+00 0.000E+00
                                122 S  
                                         5.019E+00 1.000E+00 0.000E+00 0.000E+00
                                123 S  
                                         8.355E-01 1.000E+00 0.000E+00 0.000E+00
                                124 S  
                                         2.463E-01 1.000E+00 0.000E+00 0.000E+00
                         125-   127 P  
                                         1.355E+01 0.000E+00 4.063E-02 0.000E+00
                                         2.918E+00 0.000E+00 2.209E-01 0.000E+00
                                         7.983E-01 0.000E+00 5.186E-01 0.000E+00
                         128-   130 P  
                                         2.190E-01 0.000E+00 1.000E+00 0.000E+00
                         131-   135 D  
                                         8.000E-01 0.000E+00 0.000E+00 1.000E+00
  10 N   -0.267   0.765  -7.308
  11 N   -5.599   8.015   3.440
  12 N    0.267  -0.765   7.308
  13 C    5.419  -6.358  -1.371
                                181 S  
                                         3.624E+03 1.634E-03 0.000E+00 0.000E+00
                                         5.440E+02 1.252E-02 0.000E+00 0.000E+00
                                         1.237E+02 6.211E-02 0.000E+00 0.000E+00
                                         3.476E+01 2.182E-01 0.000E+00 0.000E+00
                                         1.093E+01 4.980E-01 0.000E+00 0.000E+00
                                182 S  
                                         3.574E+00 1.000E+00 0.000E+00 0.000E+00
                                183 S  
                                         5.748E-01 1.000E+00 0.000E+00 0.000E+00
                                184 S  
                                         1.730E-01 1.000E+00 0.000E+00 0.000E+00
                         185-   187 P  
                                         9.443E+00 0.000E+00 3.790E-02 0.000E+00
                                         2.002E+00 0.000E+00 2.082E-01 0.000E+00
                                         5.463E-01 0.000E+00 5.047E-01 0.000E+00
                         188-   190 P  
                                         1.520E-01 0.000E+00 1.000E+00 0.000E+00
                         191-   195 D  
                                         8.000E-01 0.000E+00 0.000E+00 1.000E+00
  14 C   -0.087   2.422  -9.377
  15 C   -5.419   6.358   1.371
  16 C    0.087  -2.422   9.377
  17 C    3.401  -6.298   0.312
  18 C    1.931   2.482 -11.060
  19 C   -3.401   6.298  -0.312
  20 C   -1.931  -2.482  11.060
  21 C    3.384  -4.584   2.294
  22 C    4.836   4.197   8.443
  23 C   -3.384   4.584  -2.294
  24 C   -4.836  -4.197  -8.443
  25 C    5.382  -2.914   2.658
  26 C    2.838   5.867   8.079
  27 C   -5.382   2.914  -2.658
  28 C   -2.838  -5.867  -8.079
  29 C   -6.124  -3.017   1.019
  30 C    0.791   5.763   9.729
  31 C    6.124   3.017  -1.019
  32 C   -0.791  -5.763  -9.729
  33 C   -6.118  -4.713  -0.968
  34 C   -2.102   4.067  -9.770
  35 C    6.118   4.713   0.968
  36 C    2.102  -4.067   9.770
  37 C    3.729   8.490  -4.780
  38 C    1.604  -0.290  -5.968
  39 C   -3.729  -8.490   4.780
  40 C   -1.604   0.290   5.968
  41 C    4.561   6.916  -6.992
  42 C    0.771  -1.864  -3.756
  43 C   -4.561  -6.916   6.992
  44 C   -0.771   1.864   3.756
  45 H    1.827  -7.574   0.114
                                661 S  
                                         1.874E+01 1.968E-02 0.000E+00 0.000E+00
                                         2.826E+00 1.380E-01 0.000E+00 0.000E+00
                                         6.401E-01 4.783E-01 0.000E+00 0.000E+00
                                662 S  
                                         1.756E-01 1.000E+00 0.000E+00 0.000E+00
  46 H    3.505   1.206 -10.862
  47 H   -1.827   7.574  -0.114
  48 H   -3.505  -1.206  10.862
  49 H    1.788  -4.570   3.576
  50 H    6.432   4.210   7.162
  51 H   -1.788   4.570  -3.576
  52 H   -6.432  -4.210  -7.162
  53 H   -4.539  -1.745   1.250
  54 H   -0.793   7.035   9.498
  55 H    4.539   1.745  -1.250
  56 H    0.793  -7.035  -9.498
  57 H   -4.509  -4.759  -2.230
  58 H   -3.711   4.021  -8.508
  59 H    4.509   4.759   2.230
  60 H    3.711  -4.021   8.508
  61 H   -6.634  -0.550   5.040
  62 H    1.302   8.230   5.708
  63 H    6.634   0.550  -5.040
  64 H   -1.302  -8.230  -5.708
  65 H   -6.178  -8.278  -4.097
  66 H   -2.043   0.502  -6.641
  67 H    6.178   8.278   4.097
  68 H    2.043  -0.502   6.641
  69 H    3.359   7.283  -8.621
  70 H    1.973  -1.498  -2.127
  71 H   -3.359  -7.283   8.621
  72 H   -1.973   1.498   2.127
  73 H    6.524   7.231  -7.519
  74 H   -1.191  -1.549  -3.229
  75 H   -6.524  -7.231   7.519
  76 H    1.191   1.549   3.229
  77 H    4.333   4.919  -6.546
  78 H    0.999  -3.861  -4.201
  79 H   -4.333  -4.919   6.546
  80 H   -0.999   3.861   4.201

 *******************************************************************************
 FINISHED BASIS SET HANDLING 
 *******************************************************************************

 INFORMATION **** SET_MPP **** PCRYSTAL CALCULATION
 INFORMATION **** READM2 **** NEW DEFAULT: FOCK/KS MATRIX MIXING SET TO 30 %
 INFORMATION **** READM2 **** NEW DEFAULT: FULL DIRECT SCF MODE
 INFORMATION **** READM2 **** NEW DEFAULT: COULOMB BIPOLAR BUFFER SET TO 32 Mb
 INFORMATION **** READM2 **** NEW DEFAULT: EXCHANGE BIPOLAR BUFFER SET TO 32 Mb

 *******************************************************************************
 NEW DEFAULT: DFT INTEGRATION GRID INCREASED TO XLGRID
 NEW DEFAULT: DIIS ACCELERATOR ACTIVE
 USE KEYWORD NODIIS TO TURN IT OFF
 *******************************************************************************

 INFORMATION **** RDDFTP **** PBEh-3c calculation
 INFORMATION **** RDDFTP **** PBEh hybrid functional combined with D3 and gCP

PLEASE CITE:
(1) PBEh-3c Reference
 S. Grimme, J. G. Brandenburg, C. Bannwarth, and A. Hansen, 
 J. Chem. Phys. 143, 054107 (2015)
(2) DFT-D3 Reference
 S. Grimme, J. Antony, S. Ehrlich, and H. Krieg, J. Chem. Phys. 132, 154104 (2010)
(3) gCP Reference
 H. Kruse and S. Grimme J. Chem. Phys, 136, 154101 (2012)
 J. G. Brandenburg, M. Alessio, B. Civalleri, M. F. Peintinger
 T. Bredow, and S. Grimme, J. Phys. Chem. A, 117, 9282 (2013) 

 WARNING **** RDDFTP **** PBEh-3c has to be combined with def2-mSVP basis set
 WARNING **** RDDFTP **** Note: Harmonic frequencies are scaled by 0.95
 WARNING **** RDDFTP **** as recommended in original publication
 INFORMATION **** TOLDEE **** SCF TOL ON TOTAL ENERGY SET TO           9
 INFORMATION **** TOLINTEG **** COULOMB AND EXCHANGE SERIES TOLERANCES MODIFIED
 INFORMATION **** MAXCYCLE **** MAX NUMBER OF SCF CYCLES SET TO          30
 WARNING **** READM2 **** PROBABLE LOSS IN FREQCALC ACCURACY; SCF TOL LT          10
 *******************************************************************************
 N. OF ATOMS PER CELL        80  COULOMB OVERLAP TOL         (T1) 10**   -8
 NUMBER OF SHELLS           380  COULOMB PENETRATION TOL     (T2) 10**   -8
 NUMBER OF AO               732  EXCHANGE OVERLAP TOL        (T3) 10**   -8
 N. OF ELECTRONS PER CELL   320  EXCHANGE PSEUDO OVP (F(G))  (T4) 10**   -8
 CORE ELECTRONS PER CELL     88  EXCHANGE PSEUDO OVP (P(G))  (T5) 10**  -24
 N. OF SYMMETRY OPERATORS     4  POLE ORDER IN MONO ZONE                  4
 *******************************************************************************
 TYPE OF CALCULATION :  RESTRICTED CLOSED SHELL
 KOHN-SHAM HAMILTONIAN

 (EXCHANGE)[CORRELATION] FUNCTIONAL:(PBEh-3c)[PBEh-3c]


 HYBRID EXCHANGE - PERCENTAGE OF FOCK EXCHANGE    42.0000

 CAPPA:IS1  4;IS2  4;IS3  2; K PTS MONK NET  18; SYMMOPS:K SPACE   4;G SPACE   4

 *******************************************************************************
 MAX NUMBER OF SCF CYCLES      30  CONVERGENCE ON DELTAP        10**-19
 WEIGHT OF F(I) IN F(I+1)      50% CONVERGENCE ON ENERGY        10**- 9
 SHRINK. FACT.(MONKH.)    4  4  2  NUMBER OF K POINTS IN THE IBZ     18
 SHRINKING FACTOR(GILAT NET)    4  NUMBER OF K POINTS(GILAT NET)     18
 *******************************************************************************
 *** K POINTS COORDINATES (OBLIQUE COORDINATES IN UNITS OF IS =  4)
   1-R(  0  0  0)   2-C(  1  0  0)   3-R(  2  0  0)   4-C(  0  1  0)
   5-C(  1  1  0)   6-C(  2  1  0)   7-R(  0  2  0)   8-C(  1  2  0)
   9-R(  2  2  0)  10-R(  0  0  1)  11-C(  1  0  1)  12-R(  2  0  1)
  13-C(  0  1  1)  14-C(  1  1  1)  15-C(  2  1  1)  16-R(  0  2  1)
  17-C(  1  2  1)  18-R(  2  2  1)

 DIRECT LATTICE VECTORS COMPON. (A.U.)     RECIP. LATTICE VECTORS COMPON. (A.U.) 
        X            Y            Z              X            Y            Z
   13.5522598    0.0000000   -0.0104386      0.4638036    0.0000000    0.2300953
   -0.0000000   17.5601573   -0.0000000     -0.0000000    0.3578092   -0.0000000
  -10.6642210    0.0000000   21.4958899      0.0002252    0.0000000    0.2924088

 DISK SPACE FOR EIGENVECTORS (FTN 10)    15003072 REALS

 SYMMETRY ADAPTION OF THE BLOCH FUNCTIONS ENABLED
 TTTTTTTTTTTTTTTTTTTTTTTTTTTTTT gordsh1     TELAPSE        4.07 TCPU        2.32

 MATRIX SIZE: P(G) 2254276, F(G)  211484, P(G) IRR  285894, F(G) IRR   53654
 MAX G-VECTOR INDEX FOR 1- AND 2-ELECTRON INTEGRALS  95

 TTTTTTTTTTTTTTTTTTTTTTTTTTTTTT INPUT       TELAPSE        4.21 TCPU        2.47

 NEIGHBORS OF THE NON-EQUIVALENT ATOMS

 N = NUMBER OF NEIGHBORS AT DISTANCE R
    ATOM  N     R/ANG      R/AU   NEIGHBORS (ATOM LABELS AND CELL INDICES)
   1 O    1     0.9841     1.8596   61 H    1 0 0
   1 O    1     1.3483     2.5479   25 C    0 0 0
   1 O    1     2.0571     3.8874   68 H    0 0 0
   1 O    1     2.3587     4.4572   21 C    0 0 0
   1 O    1     2.4028     4.5407   29 C    1 0 0
   1 O    1     2.5967     4.9071   49 H    0 0 0

   5 O    1     1.2323     2.3288   37 C    0 0 0
   5 O    1     1.6873     3.1886   64 H    0 1 0
   5 O    1     2.2617     4.2739    9 N    0 1 0
   5 O    1     2.3916     4.5195   41 C    0 0 0
   5 O    1     2.4067     4.5479   45 H    0 1 0
   5 O    1     2.6259     4.9621   78 H    0 1 0

   9 N    1     1.0134     1.9150   65 H    1 0 0
   9 N    1     1.3395     2.5312   37 C    0-1 0
   9 N    1     1.4064     2.6576   13 C    0 0 0
   9 N    1     2.2617     4.2739    5 O    0-1 0
   9 N    1     2.3862     4.5092   33 C    1 0 0
   9 N    1     2.4019     4.5390   41 C    0-1 0

  13 C    1     1.3908     2.6282   17 C    0 0 0
  13 C    1     1.3918     2.6300   33 C    1 0 0
  13 C    1     1.4064     2.6576    9 N    0 0 0
  13 C    1     2.0495     3.8731   65 H    1 0 0
  13 C    1     2.1461     4.0555   57 H    1 0 0
  13 C    1     2.1553     4.0729   45 H    0 0 0

  17 C    1     1.0774     2.0360   45 H    0 0 0
  17 C    1     1.3870     2.6211   21 C    0 0 0
  17 C    1     1.3908     2.6282   13 C    0 0 0
  17 C    1     2.1324     4.0297   49 H    0 0 0
  17 C    1     2.3924     4.5209   33 C    1 0 0
  17 C    1     2.4184     4.5701   25 C    0 0 0

  21 C    1     1.0828     2.0462   49 H    0 0 0
  21 C    1     1.3870     2.6211   17 C    0 0 0
  21 C    1     1.3916     2.6297   25 C    0 0 0
  21 C    1     2.1246     4.0150   45 H    0 0 0
  21 C    1     2.3587     4.4572    1 O    0 0 0
  21 C    1     2.3941     4.5242   29 C    1 0 0

  25 C    1     1.3483     2.5479    1 O    0 0 0
  25 C    1     1.3916     2.6297   21 C    0 0 0
  25 C    1     1.3920     2.6305   29 C    1 0 0
  25 C    1     1.9493     3.6836   61 H    1 0 0
  25 C    1     2.1497     4.0624   49 H    0 0 0
  25 C    1     2.1534     4.0693   53 H    1 0 0

  29 C    1     1.0818     2.0443   53 H    0 0 0
  29 C    1     1.3825     2.6125   33 C    0 0 0
  29 C    1     1.3920     2.6305   25 C   -1 0 0
  29 C    1     2.1298     4.0246   57 H    0 0 0
  29 C    1     2.3941     4.5242   21 C   -1 0 0
  29 C    1     2.4028     4.5407    1 O   -1 0 0

  33 C    1     1.0826     2.0459   57 H    0 0 0
  33 C    1     1.3825     2.6125   29 C    0 0 0
  33 C    1     1.3918     2.6300   13 C   -1 0 0
  33 C    1     2.1310     4.0270   53 H    0 0 0
  33 C    1     2.3862     4.5092    9 N   -1 0 0
  33 C    1     2.3924     4.5209   17 C   -1 0 0

  37 C    1     1.2323     2.3288    5 O    0 0 0
  37 C    1     1.3395     2.5312    9 N    0 1 0
  37 C    1     1.5026     2.8395   41 C    0 0 0
  37 C    1     2.0063     3.7914   65 H    1 1 0
  37 C    1     2.1323     4.0294   77 H    0 0 0
  37 C    1     2.1394     4.0429   69 H    0 0 0

  41 C    1     1.0881     2.0562   73 H    0 0 0
  41 C    1     1.0888     2.0576   69 H    0 0 0
  41 C    1     1.0893     2.0584   77 H    0 0 0
  41 C    1     1.5026     2.8395   37 C    0 0 0
  41 C    1     2.3916     4.5195    5 O    0 0 0
  41 C    1     2.4019     4.5390    9 N    0 1 0

  45 H    1     1.0774     2.0360   17 C    0 0 0
  45 H    1     2.1246     4.0150   21 C    0 0 0
  45 H    1     2.1553     4.0729   13 C    0 0 0
  45 H    1     2.3203     4.3848   47 H    0-1 0
  45 H    1     2.4067     4.5479    5 O    0-1 0
  45 H    1     2.4253     4.5832   49 H    0 0 0

  49 H    1     1.0828     2.0462   21 C    0 0 0
  49 H    1     2.1324     4.0297   17 C    0 0 0
  49 H    1     2.1497     4.0624   25 C    0 0 0
  49 H    1     2.4253     4.5832   45 H    0 0 0
  49 H    1     2.5967     4.9071    1 O    0 0 0
  49 H    1     2.6989     5.1001   68 H    0 0 0

  53 H    1     1.0818     2.0443   29 C    0 0 0
  53 H    1     2.1310     4.0270   33 C    0 0 0
  53 H    1     2.1534     4.0693   25 C   -1 0 0
  53 H    1     2.2371     4.2276   72 H    0 0 0
  53 H    1     2.3774     4.4926   61 H    0 0 0
  53 H    1     2.4358     4.6030   57 H    0 0 0

  57 H    1     1.0826     2.0459   33 C    0 0 0
  57 H    1     2.1298     4.0246   29 C    0 0 0
  57 H    1     2.1461     4.0555   13 C   -1 0 0
  57 H    1     2.2857     4.3194   65 H    0 0 0
  57 H    1     2.4358     4.6030   53 H    0 0 0
  57 H    1     2.4991     4.7226   74 H    0 0 0

  61 H    1     0.9841     1.8596    1 O   -1 0 0
  61 H    1     1.6873     3.1886    8 O    0 0 0
  61 H    1     1.9493     3.6836   25 C   -1 0 0
  61 H    1     2.3774     4.4926   53 H    0 0 0
  61 H    1     2.5109     4.7449   29 C    0 0 0
  61 H    1     2.7175     5.1353   68 H   -1 0 0

  65 H    1     1.0134     1.9150    9 N   -1 0 0
  65 H    1     2.0063     3.7914   37 C   -1-1 0
  65 H    1     2.0495     3.8731   13 C   -1 0 0
  65 H    1     2.0571     3.8874    4 O    0 0 0
  65 H    1     2.1542     4.0708   73 H   -1-1 0
  65 H    1     2.2857     4.3194   57 H    0 0 0

  69 H    1     1.0888     2.0576   41 C    0 0 0
  69 H    1     1.7420     3.2920   77 H    0 0 0
  69 H    1     1.7734     3.3512   73 H    0 0 0
  69 H    1     2.1394     4.0429   37 C    0 0 0
  69 H    1     2.2371     4.2276   56 H    0 1 0
  69 H    1     2.6363     4.9819    5 O    0 0 0

  73 H    1     1.0881     2.0562   41 C    0 0 0
  73 H    1     1.7623     3.3302   77 H    0 0 0
  73 H    1     1.7734     3.3512   69 H    0 0 0
  73 H    1     2.1542     4.0708   65 H    1 1 0
  73 H    1     2.1753     4.1108   37 C    0 0 0
  73 H    1     2.4991     4.7226   58 H    1 0 0

  77 H    1     1.0893     2.0584   41 C    0 0 0
  77 H    1     1.7420     3.2920   69 H    0 0 0
  77 H    1     1.7623     3.3302   73 H    0 0 0
  77 H    1     2.1323     4.0294   37 C    0 0 0
  77 H    1     2.6259     4.9621    6 O    0 0 0
  77 H    1     2.7320     5.1628   63 H    0 0 0


 SYMMETRY ALLOWED INTERNAL DEGREE(S) OF FREEDOM:  60
 TTTTTTTTTTTTTTTTTTTTTTTTTTTTTT SYMM        TELAPSE        4.25 TCPU        2.50
 TTTTTTTTTTTTTTTTTTTTTTTTTTTTTT INT_SCREEN  TELAPSE        4.40 TCPU        2.66

 *******************************************************************************
 *                                                                             *
 *                                                                             *
 *         FFFFF  RRRR   EEEE   QQQ   U   U  EEEE  N   N   CCC  Y   Y          *
 *         F      R   R  E     Q   Q  U   U  E     NN  N  C      Y Y           *
 *         FFF    RRRR   EEEE  Q   Q  U   U  EEEE  N N N  C       Y            *
 *         F      R   R  E     Q  QQ  U   U  E     N  NN  C       Y            *
 *         F      R   R  EEEE   QQ Q   UUU   EEEE  N   N   CCC    Y            *
 *                                                                             *
 *                                                                             *
 * CALCULATION OF PHONON FREQUENCIES AT THE GAMMA POINT.                       *
 *                                                                             *
 * SYMMETRY IS EXPLOITED TO BUILD THE TOTAL HESSIAN MATRIX.                    *
 * (F. PASCALE PHD THESIS TURIN-PARIS 2002)                                    *
 *                                                                             *
 *******************************************************************************


 * INTENSITIES COMPUTED VIA THE BERRY PHASE APPROACH                           *
 *                                                                             *
 * REFERENCES TO BE QUOTED WHEN USING THIS MODULE:                             *
 *                                                                             *
 * F. Pascale, C.M. Zicovich-Wilson, F. Lopez, B. Civalleri                    *
 * R. Orlando, R. Dovesi                                                       *
 * The calculation of the vibration frequencies of crystalline                 *
 * compounds and its implementation in the CRYSTAL code                        *
 * J. Comput. Chem. 25 (2004) 888-897                                          *
 *                                                                             *
 * C.M. Zicovich-Wilson, F. Pascale, C. Roetti, V.R. Saunders,                 *
 * R. Orlando, R. Dovesi                                                       *
 * The calculation of the vibration frequencies of alpha-quartz:               *
 * the effect of hamiltonian and basis set                                     *
 * J. Comput. Chem. 25 (2004) 1873-1881                                        *
 *******************************************************************************



 ATOMS ISOTOPIC MASS (AMU) FOR FREQUENCY CALCULATION 

    1 O      15.9949    2 O      15.9949    3 O      15.9949    4 O      15.9949
    5 O      15.9949    6 O      15.9949    7 O      15.9949    8 O      15.9949
    9 N      14.0031   10 N      14.0031   11 N      14.0031   12 N      14.0031
   13 C      12.0000   14 C      12.0000   15 C      12.0000   16 C      12.0000
   17 C      12.0000   18 C      12.0000   19 C      12.0000   20 C      12.0000
   21 C      12.0000   22 C      12.0000   23 C      12.0000   24 C      12.0000
   25 C      12.0000   26 C      12.0000   27 C      12.0000   28 C      12.0000
   29 C      12.0000   30 C      12.0000   31 C      12.0000   32 C      12.0000
   33 C      12.0000   34 C      12.0000   35 C      12.0000   36 C      12.0000
   37 C      12.0000   38 C      12.0000   39 C      12.0000   40 C      12.0000
   41 C      12.0000   42 C      12.0000   43 C      12.0000   44 C      12.0000
   45 H       1.0078   46 H       1.0078   47 H       1.0078   48 H       1.0078
   49 H       1.0078   50 H       1.0078   51 H       1.0078   52 H       1.0078
   53 H       1.0078   54 H       1.0078   55 H       1.0078   56 H       1.0078
   57 H       1.0078   58 H       1.0078   59 H       1.0078   60 H       1.0078
   61 H       1.0078   62 H       1.0078   63 H       1.0078   64 H       1.0078
   65 H       1.0078   66 H       1.0078   67 H       1.0078   68 H       1.0078
   69 H       1.0078   70 H       1.0078   71 H       1.0078   72 H       1.0078
   73 H       1.0078   74 H       1.0078   75 H       1.0078   76 H       1.0078
   77 H       1.0078   78 H       1.0078   79 H       1.0078   80 H       1.0078

 INFORMATION CONCERNING THE SCF+GRADIENT CALCULATIONS REQUIRED FOR
 GENERATING FREQUENCIES. IN PRINCIPLE 3N+1 SCF + GRADIENT
 CALCULATIONS  ARE REQUIRED;
 FOR EACH OF THEM THE REMAINING POINT SYMMETRY IS INDICATED.
 POINT SYMMETRY PERMITS TO GENERATE GRADIENTS FOR DISPLACEMENT B 
 STARTING FROM THE GRADIENT GENERATED BY DISPLACEMENT A.

   N   LABEL SYMBOL DISPLACEMENT     SYM. 

   1     EQUILIBRIUM GEOMETRY            4

   2      1   O            DX           1
   3      1   O            DY           1
   4      1   O            DZ           1
   5      5   O            DX           1
   6      5   O            DY           1
   7      5   O            DZ           1
   8      9   N            DX           1
   9      9   N            DY           1
  10      9   N            DZ           1
  11     13   C            DX           1
  12     13   C            DY           1
  13     13   C            DZ           1
  14     17   C            DX           1
  15     17   C            DY           1
  16     17   C            DZ           1
  17     21   C            DX           1
  18     21   C            DY           1
  19     21   C            DZ           1
  20     25   C            DX           1
  21     25   C            DY           1
  22     25   C            DZ           1
  23     29   C            DX           1
  24     29   C            DY           1
  25     29   C            DZ           1
  26     33   C            DX           1
  27     33   C            DY           1
  28     33   C            DZ           1
  29     37   C            DX           1
  30     37   C            DY           1
  31     37   C            DZ           1
  32     41   C            DX           1
  33     41   C            DY           1
  34     41   C            DZ           1
  35     45   H            DX           1
  36     45   H            DY           1
  37     45   H            DZ           1
  38     49   H            DX           1
  39     49   H            DY           1
  40     49   H            DZ           1
  41     53   H            DX           1
  42     53   H            DY           1
  43     53   H            DZ           1
  44     57   H            DX           1
  45     57   H            DY           1
  46     57   H            DZ           1
  47     61   H            DX           1
  48     61   H            DY           1
  49     61   H            DZ           1
  50     65   H            DX           1
  51     65   H            DY           1
  52     65   H            DZ           1
  53     69   H            DX           1
  54     69   H            DY           1
  55     69   H            DZ           1
  56     73   H            DX           1
  57     73   H            DY           1
  58     73   H            DZ           1
  59     77   H            DX           1
  60     77   H            DY           1
  61     77   H            DZ           1
 USE OF RESIDUAL SYMMETRY AFTER DISPLACEMENT

 NUMERICAL GRADIENT COMPUTED WITH A SINGLE DISPLACEMENT (+DX) FOR EACH
 CARTESIAN COORDINATE WITH RESPECT TO THE EQUILIBRIUM CONFIGURATION
 DX=  0.003 ANGSTROM
 NUMBER OF IRREDUCIBLE ATOMS                    20
 NUMBER OF SCF+GRADIENT CALCULATIONS            61

  ATOM  SYMOP  ORDER
    1      1      1
    5      1      1
    9      1      1
   13      1      1
   17      1      1
   21      1      1
   25      1      1
   29      1      1
   33      1      1
   37      1      1
   41      1      1
   45      1      1
   49      1      1
   53      1      1
   57      1      1
   61      1      1
   65      1      1
   69      1      1
   73      1      1
   77      1      1

 ATOM  : IRREDUCIBLE ATOM
 SYMOP : NUMBER OF SYMMETRY OPERATORS THAT DOESN'T MOVE THE IRREDUCIBLE ATOM
 ORDER : MAXIMUM ORDER AMONG THE OPERATORS OF THE IRREDUCIBLE ATOM

 *******************************************************************************


 GCALCO - MAX INDICES DIRECT LATTICE VECTOR    20    14    11
 NO.OF VECTORS CREATED 6999 STARS 1868 RMAX   204.27049 BOHR

 CAPPA:IS1  4;IS2  4;IS3  2; K PTS MONK NET  18; SYMMOPS:K SPACE   4;G SPACE   4

 TTTTTTTTTTTTTTTTTTTTTTTTTTTTTT gordsh1     TELAPSE        4.43 TCPU        2.69

 MATRIX SIZE: P(G) 2254276, F(G)  211484, P(G) IRR  285894, F(G) IRR   53654
 MAX G-VECTOR INDEX FOR 1- AND 2-ELECTRON INTEGRALS  95

 TTTTTTTTTTTTTTTTTTTTTTTTTTTTTT INPUT       TELAPSE        4.45 TCPU        2.70

 SYMMETRY ALLOWED INTERNAL DEGREE(S) OF FREEDOM:  60
 TTTTTTTTTTTTTTTTTTTTTTTTTTTTTT SYMM        TELAPSE        4.48 TCPU        2.73
 TTTTTTTTTTTTTTTTTTTTTTTTTTTTTT INT_SCREEN  TELAPSE        4.49 TCPU        2.74
 INFORMATION **** EXCBUF **** EXCH. BIPO BUFFER: WORDS USED =     3850299

 DFT PARAMETERS

     ATOM       ELECTRONS   NET CHARGE   R(ANGSTROM)
   1   8  O       8.0000      0.0000     0.74000000
   9   7  N       7.0000      0.0000     0.74000000
  13   6  C       6.0000      0.0000     0.77000000
  45   1  H       1.0000      0.0000     1.11000000

 SIZE OF GRID=     995180
 TTTTTTTTTTTTTTTTTTTTTTTTTTTTTT MAKE_GRID2  TELAPSE        7.72 TCPU        5.97
 BECKE WEIGHT FUNCTION
 RADSAFE =     2.00
 TOLERANCES - DENSITY:10**- 6; POTENTIAL:10**- 9; GRID WGT:10**-14

 RADIAL INTEGRATION  - INTERVALS (POINTS,UPPER LIMIT):            1( 99,  4.0*R)

 ANGULAR INTEGRATION - INTERVALS (ACCURACY LEVEL [N. POINTS] UPPER LIMIT):
  1(  6[ 146]   0.2)  2( 11[ 302]   0.5)  3( 14[ 590]   0.9)  4( 18[1454]   3.5)
  5( 14[ 590]9999.0)
 TTTTTTTTTTTTTTTTTTTTTTTTTTTTTT INT_CALC    TELAPSE        7.76 TCPU        6.01

 *******************************************************************************
 F1 vol step1 freq - PBEh-3c                                                     
 CRYSTAL - SCF - TYPE OF CALCULATION :  RESTRICTED CLOSED SHELL
 *******************************************************************************

 CAPPA:IS1  4;IS2  4;IS3  2; K PTS MONK NET  18; SYMMOPS:K SPACE   4;G SPACE   4

 TTTTTTTTTTTTTTTTTTTTTTTTTTTTTT SDIK        TELAPSE        8.03 TCPU        6.27

 AAAAAAAAAAAAAAAAAAAAAAAAAAAAAAAAAAAAAAAAAAAAAAAAAAAAAAAAAAAAAAAAAAAAAAAAAAAAAAA
         ATOMIC WAVEFUNCTION(S)


 NUCLEAR CHARGE  8.0  SYMMETRY SPECIES            S    P
 N. ELECTRONS    8.0  NUMBER OF PRIMITIVE GTOS    8    4
                      NUMBER OF CONTRACTED GTOS   4    2
                      NUMBER OF CLOSED SHELLS     2    0
                      OPEN SHELL OCCUPATION       0    4

  ZNUC SCFIT  TOTAL HF ENERGY   KINETIC ENERGY   VIRIAL THEOREM ACCURACY
   8.0  12   -7.477373220E+01  7.477365593E+01 -2.000001020E+00  3.8E-06

 NUCLEAR CHARGE  7.0  SYMMETRY SPECIES            S    P
 N. ELECTRONS    7.0  NUMBER OF PRIMITIVE GTOS    8    4
                      NUMBER OF CONTRACTED GTOS   4    2
                      NUMBER OF CLOSED SHELLS     2    0
                      OPEN SHELL OCCUPATION       0    3

  ZNUC SCFIT  TOTAL HF ENERGY   KINETIC ENERGY   VIRIAL THEOREM ACCURACY
   7.0   9   -5.437948210E+01  5.437948297E+01 -1.999999984E+00  1.2E-06

 NUCLEAR CHARGE  6.0  SYMMETRY SPECIES            S    P
 N. ELECTRONS    6.0  NUMBER OF PRIMITIVE GTOS    8    4
                      NUMBER OF CONTRACTED GTOS   4    2
                      NUMBER OF CLOSED SHELLS     2    0
                      OPEN SHELL OCCUPATION       0    2

  ZNUC SCFIT  TOTAL HF ENERGY   KINETIC ENERGY   VIRIAL THEOREM ACCURACY
   6.0   9   -3.767634636E+01  3.767630973E+01 -2.000000972E+00  4.2E-06

 NUCLEAR CHARGE  1.0  SYMMETRY SPECIES            S
 N. ELECTRONS    1.0  NUMBER OF PRIMITIVE GTOS    4
                      NUMBER OF CONTRACTED GTOS   2
                      NUMBER OF CLOSED SHELLS     0
                      OPEN SHELL OCCUPATION       1

  ZNUC SCFIT  TOTAL HF ENERGY   KINETIC ENERGY   VIRIAL THEOREM ACCURACY
   1.0   1   -4.977266687E-01  5.190767460E-01 -1.958869132E+00  2.2E-17

 AAAAAAAAAAAAAAAAAAAAAAAAAAAAAAAAAAAAAAAAAAAAAAAAAAAAAAAAAAAAAAAAAAAAAAAAAAAAAAA

 TTTTTTTTTTTTTTTTTTTTTTTTTTTTTT MOQGAD      TELAPSE        8.60 TCPU        6.73
 TTTTTTTTTTTTTTTTTTTTTTTTTTTTTT SHELLXN     TELAPSE       12.28 TCPU       10.41
 TTTTTTTTTTTTTTTTTTTTTTTTTTTTTT MONMO3      TELAPSE       13.68 TCPU       11.81
 NUMERICALLY INTEGRATED DENSITY    319.9998267697
 TTTTTTTTTTTTTTTTTTTTTTTTTTTTTT NUMDFT      TELAPSE       14.01 TCPU       12.14
 CYC   0 ETOT(AU) -2.070730219469E+03 DETOT -2.07E+03 tst  0.00E+00 PX  1.00E+00
 TTTTTTTTTTTTTTTTTTTTTTTTTTTTTT DIIS        TELAPSE       14.05 TCPU       12.18
 TTTTTTTTTTTTTTTTTTTTTTTTTTTTTT FDIK        TELAPSE       14.63 TCPU       12.76
 INSULATING STATE
 TOP OF VALENCE BANDS -    BAND    160; K    1; EIG -2.8112098E-01 AU
 BOTTOM OF VIRTUAL BANDS - BAND    161; K    7; EIG -1.2581220E-01 AU
 INDIRECT ENERGY BAND GAP:   4.2262 eV
 BOTTOM OF VIRTUAL BANDS - BAND    161; K    1; EIG -1.2068080E-01 AU
 TTTTTTTTTTTTTTTTTTTTTTTTTTTTTT PDIG        TELAPSE       14.98 TCPU       13.11
 TTTTTTTTTTTTTTTTTTTTTTTTTTTTTT MOQGAD      TELAPSE       14.99 TCPU       13.11
 TTTTTTTTTTTTTTTTTTTTTTTTTTTTTT SHELLXN     TELAPSE       18.83 TCPU       16.93
 TTTTTTTTTTTTTTTTTTTTTTTTTTTTTT MONMO3      TELAPSE       20.27 TCPU       18.37
 NUMERICALLY INTEGRATED DENSITY    319.9998581538
 TTTTTTTTTTTTTTTTTTTTTTTTTTTTTT NUMDFT      TELAPSE       20.81 TCPU       18.91
 CYC   1 ETOT(AU) -2.057249375938E+03 DETOT  1.35E+01 tst  0.00E+00 PX  1.00E+00
 TTTTTTTTTTTTTTTTTTTTTTTTTTTTTT DIIS        TELAPSE       20.85 TCPU       18.95
 DIIS TEST: 0.17507E+01 AT SCF   CYCLE   1 - MIX   50 %
 TTTTTTTTTTTTTTTTTTTTTTTTTTTTTT FDIK        TELAPSE       21.43 TCPU       19.53
 INSULATING STATE
 TOP OF VALENCE BANDS -    BAND    160; K   10; EIG -2.4865258E-01 AU
 TOP OF VALENCE BANDS -    BAND    160; K    1; EIG -2.4873883E-01 AU
 BOTTOM OF VIRTUAL BANDS - BAND    161; K    7; EIG -4.7173041E-02 AU
 INDIRECT ENERGY BAND GAP:   5.4825 eV
 BOTTOM OF VIRTUAL BANDS - BAND    161; K    1; EIG -4.6906048E-02 AU
 TTTTTTTTTTTTTTTTTTTTTTTTTTTTTT PDIG        TELAPSE       21.78 TCPU       19.88
 TTTTTTTTTTTTTTTTTTTTTTTTTTTTTT MOQGAD      TELAPSE       21.78 TCPU       19.88
 TTTTTTTTTTTTTTTTTTTTTTTTTTTTTT SHELLXN     TELAPSE       25.58 TCPU       23.68
 TTTTTTTTTTTTTTTTTTTTTTTTTTTTTT MONMO3      TELAPSE       27.08 TCPU       25.17
 NUMERICALLY INTEGRATED DENSITY    319.9998498925
 TTTTTTTTTTTTTTTTTTTTTTTTTTTTTT NUMDFT      TELAPSE       27.61 TCPU       25.71
 CYC   2 ETOT(AU) -2.057712242899E+03 DETOT -4.63E-01 tst  9.79E-04 PX  1.27E-01
 TTTTTTTTTTTTTTTTTTTTTTTTTTTTTT DIIS        TELAPSE       27.64 TCPU       25.74
 DIIS TEST: 0.14137E+00 AT SCF   CYCLE   2 - DIIS ACTIVE - HISTORY:     2 CYCLES
 TTTTTTTTTTTTTTTTTTTTTTTTTTTTTT FDIK        TELAPSE       28.26 TCPU       26.33
 INSULATING STATE
 TOP OF VALENCE BANDS -    BAND    160; K   10; EIG -2.3980206E-01 AU
 TOP OF VALENCE BANDS -    BAND    160; K    1; EIG -2.3986347E-01 AU
 BOTTOM OF VIRTUAL BANDS - BAND    161; K   16; EIG -5.5016958E-03 AU
 INDIRECT ENERGY BAND GAP:   6.3756 eV
 BOTTOM OF VIRTUAL BANDS - BAND    161; K    1; EIG -1.5291145E-03 AU
 TTTTTTTTTTTTTTTTTTTTTTTTTTTTTT PDIG        TELAPSE       28.60 TCPU       26.68
 TTTTTTTTTTTTTTTTTTTTTTTTTTTTTT MOQGAD      TELAPSE       28.61 TCPU       26.68
 TTTTTTTTTTTTTTTTTTTTTTTTTTTTTT SHELLXN     TELAPSE       32.44 TCPU       30.51
 TTTTTTTTTTTTTTTTTTTTTTTTTTTTTT MONMO3      TELAPSE       33.90 TCPU       31.97
 NUMERICALLY INTEGRATED DENSITY    319.9998440602
 TTTTTTTTTTTTTTTTTTTTTTTTTTTTTT NUMDFT      TELAPSE       34.44 TCPU       32.51
 CYC   3 ETOT(AU) -2.057734377165E+03 DETOT -2.21E-02 tst  2.07E-04 PX  4.21E-02
 TTTTTTTTTTTTTTTTTTTTTTTTTTTTTT DIIS        TELAPSE       34.47 TCPU       32.54
 DIIS TEST: 0.78977E-01 AT SCF   CYCLE   3 - DIIS ACTIVE - HISTORY:     3 CYCLES
 TTTTTTTTTTTTTTTTTTTTTTTTTTTTTT FDIK        TELAPSE       35.05 TCPU       33.11
 INSULATING STATE
 TOP OF VALENCE BANDS -    BAND    160; K   10; EIG -2.4986561E-01 AU
 TOP OF VALENCE BANDS -    BAND    160; K    1; EIG -2.5000385E-01 AU
 BOTTOM OF VIRTUAL BANDS - BAND    161; K   16; EIG -1.2294513E-02 AU
 INDIRECT ENERGY BAND GAP:   6.4646 eV
 BOTTOM OF VIRTUAL BANDS - BAND    161; K    1; EIG -7.2431465E-03 AU
 TTTTTTTTTTTTTTTTTTTTTTTTTTTTTT PDIG        TELAPSE       35.40 TCPU       33.46
 TTTTTTTTTTTTTTTTTTTTTTTTTTTTTT MOQGAD      TELAPSE       35.40 TCPU       33.46
 TTTTTTTTTTTTTTTTTTTTTTTTTTTTTT SHELLXN     TELAPSE       39.23 TCPU       37.29
 TTTTTTTTTTTTTTTTTTTTTTTTTTTTTT MONMO3      TELAPSE       40.69 TCPU       38.76
 NUMERICALLY INTEGRATED DENSITY    319.9998468108
 TTTTTTTTTTTTTTTTTTTTTTTTTTTTTT NUMDFT      TELAPSE       41.24 TCPU       39.30
 CYC   4 ETOT(AU) -2.057752277437E+03 DETOT -1.79E-02 tst  1.17E-04 PX  3.22E-02
 TTTTTTTTTTTTTTTTTTTTTTTTTTTTTT DIIS        TELAPSE       41.27 TCPU       39.33
 DIIS TEST: 0.89869E-02 AT SCF   CYCLE   4 - DIIS ACTIVE - HISTORY:     4 CYCLES
 TTTTTTTTTTTTTTTTTTTTTTTTTTTTTT FDIK        TELAPSE       41.85 TCPU       39.90
 INSULATING STATE
 TOP OF VALENCE BANDS -    BAND    160; K   10; EIG -2.4751211E-01 AU
 TOP OF VALENCE BANDS -    BAND    160; K    1; EIG -2.4763535E-01 AU
 BOTTOM OF VIRTUAL BANDS - BAND    161; K   16; EIG -1.0214241E-02 AU
 INDIRECT ENERGY BAND GAP:   6.4572 eV
 BOTTOM OF VIRTUAL BANDS - BAND    161; K    1; EIG -5.9147375E-03 AU
 TTTTTTTTTTTTTTTTTTTTTTTTTTTTTT PDIG        TELAPSE       42.19 TCPU       40.25
 TTTTTTTTTTTTTTTTTTTTTTTTTTTTTT MOQGAD      TELAPSE       42.20 TCPU       40.25
 TTTTTTTTTTTTTTTTTTTTTTTTTTTTTT SHELLXN     TELAPSE       46.02 TCPU       44.07
 TTTTTTTTTTTTTTTTTTTTTTTTTTTTTT MONMO3      TELAPSE       47.66 TCPU       45.72
 NUMERICALLY INTEGRATED DENSITY    319.9998461327
 TTTTTTTTTTTTTTTTTTTTTTTTTTTTTT NUMDFT      TELAPSE       48.20 TCPU       46.25
 CYC   5 ETOT(AU) -2.057754408332E+03 DETOT -2.13E-03 tst  9.25E-06 PX  8.08E-03
 TTTTTTTTTTTTTTTTTTTTTTTTTTTTTT DIIS        TELAPSE       48.23 TCPU       46.29
 DIIS TEST: 0.79969E-03 AT SCF   CYCLE   5 - DIIS ACTIVE - HISTORY:     5 CYCLES
 TTTTTTTTTTTTTTTTTTTTTTTTTTTTTT FDIK        TELAPSE       48.82 TCPU       46.87
 INSULATING STATE
 TOP OF VALENCE BANDS -    BAND    160; K   10; EIG -2.4720430E-01 AU
 TOP OF VALENCE BANDS -    BAND    160; K    1; EIG -2.4733222E-01 AU
 BOTTOM OF VIRTUAL BANDS - BAND    161; K   16; EIG -9.9382374E-03 AU
 INDIRECT ENERGY BAND GAP:   6.4563 eV
 BOTTOM OF VIRTUAL BANDS - BAND    161; K    1; EIG -5.2573021E-03 AU
 TTTTTTTTTTTTTTTTTTTTTTTTTTTTTT PDIG        TELAPSE       49.16 TCPU       47.21
 TTTTTTTTTTTTTTTTTTTTTTTTTTTTTT MOQGAD      TELAPSE       49.17 TCPU       47.22
 TTTTTTTTTTTTTTTTTTTTTTTTTTTTTT SHELLXN     TELAPSE       53.03 TCPU       51.03
 TTTTTTTTTTTTTTTTTTTTTTTTTTTTTT MONMO3      TELAPSE       54.46 TCPU       52.46
 NUMERICALLY INTEGRATED DENSITY    319.9998460063
 TTTTTTTTTTTTTTTTTTTTTTTTTTTTTT NUMDFT      TELAPSE       55.00 TCPU       53.00
 CYC   6 ETOT(AU) -2.057754589364E+03 DETOT -1.81E-04 tst  1.38E-06 PX  1.69E-03
 TTTTTTTTTTTTTTTTTTTTTTTTTTTTTT DIIS        TELAPSE       55.03 TCPU       53.03
 DIIS TEST: 0.47983E-04 AT SCF   CYCLE   6 - DIIS ACTIVE - HISTORY:     6 CYCLES
 TTTTTTTTTTTTTTTTTTTTTTTTTTTTTT FDIK        TELAPSE       55.61 TCPU       53.61
 INSULATING STATE
 TOP OF VALENCE BANDS -    BAND    160; K   10; EIG -2.4713346E-01 AU
 TOP OF VALENCE BANDS -    BAND    160; K    1; EIG -2.4725603E-01 AU
 BOTTOM OF VIRTUAL BANDS - BAND    161; K   16; EIG -9.9164716E-03 AU
 INDIRECT ENERGY BAND GAP:   6.4550 eV
 BOTTOM OF VIRTUAL BANDS - BAND    161; K    1; EIG -5.1517101E-03 AU
 TTTTTTTTTTTTTTTTTTTTTTTTTTTTTT PDIG        TELAPSE       55.96 TCPU       53.96
 TTTTTTTTTTTTTTTTTTTTTTTTTTTTTT MOQGAD      TELAPSE       55.97 TCPU       53.96
 TTTTTTTTTTTTTTTTTTTTTTTTTTTTTT SHELLXN     TELAPSE       59.79 TCPU       57.79
 TTTTTTTTTTTTTTTTTTTTTTTTTTTTTT MONMO3      TELAPSE       61.26 TCPU       59.25
 NUMERICALLY INTEGRATED DENSITY    319.9998459584
 TTTTTTTTTTTTTTTTTTTTTTTTTTTTTT NUMDFT      TELAPSE       61.80 TCPU       59.79
 CYC   7 ETOT(AU) -2.057754599586E+03 DETOT -1.02E-05 tst  2.09E-07 PX  4.92E-04
 TTTTTTTTTTTTTTTTTTTTTTTTTTTTTT DIIS        TELAPSE       61.91 TCPU       59.91
 DIIS TEST: 0.78415E-05 AT SCF   CYCLE   7 - DIIS ACTIVE - HISTORY:     7 CYCLES
 TTTTTTTTTTTTTTTTTTTTTTTTTTTTTT FDIK        TELAPSE       62.49 TCPU       60.48
 INSULATING STATE
 TOP OF VALENCE BANDS -    BAND    160; K   10; EIG -2.4716923E-01 AU
 TOP OF VALENCE BANDS -    BAND    160; K    1; EIG -2.4729421E-01 AU
 BOTTOM OF VIRTUAL BANDS - BAND    161; K   16; EIG -9.9221368E-03 AU
 INDIRECT ENERGY BAND GAP:   6.4558 eV
 BOTTOM OF VIRTUAL BANDS - BAND    161; K    1; EIG -5.1998538E-03 AU
 TTTTTTTTTTTTTTTTTTTTTTTTTTTTTT PDIG        TELAPSE       62.84 TCPU       60.83
 TTTTTTTTTTTTTTTTTTTTTTTTTTTTTT MOQGAD      TELAPSE       62.85 TCPU       60.83
 TTTTTTTTTTTTTTTTTTTTTTTTTTTTTT SHELLXN     TELAPSE       66.67 TCPU       64.66
 TTTTTTTTTTTTTTTTTTTTTTTTTTTTTT MONMO3      TELAPSE       68.14 TCPU       66.13
 NUMERICALLY INTEGRATED DENSITY    319.9998459592
 TTTTTTTTTTTTTTTTTTTTTTTTTTTTTT NUMDFT      TELAPSE       68.68 TCPU       66.67
 CYC   8 ETOT(AU) -2.057754601979E+03 DETOT -2.39E-06 tst  1.57E-08 PX  1.83E-04
 TTTTTTTTTTTTTTTTTTTTTTTTTTTTTT DIIS        TELAPSE       68.72 TCPU       66.71
 DIIS TEST: 0.29485E-06 AT SCF   CYCLE   8 - DIIS ACTIVE - HISTORY:     8 CYCLES
 TTTTTTTTTTTTTTTTTTTTTTTTTTTTTT FDIK        TELAPSE       69.30 TCPU       67.28
 INSULATING STATE
 TOP OF VALENCE BANDS -    BAND    160; K   10; EIG -2.4717933E-01 AU
 TOP OF VALENCE BANDS -    BAND    160; K    1; EIG -2.4730361E-01 AU
 BOTTOM OF VIRTUAL BANDS - BAND    161; K   16; EIG -9.9275047E-03 AU
 INDIRECT ENERGY BAND GAP:   6.4560 eV
 BOTTOM OF VIRTUAL BANDS - BAND    161; K    1; EIG -5.2039073E-03 AU
 TTTTTTTTTTTTTTTTTTTTTTTTTTTTTT PDIG        TELAPSE       69.65 TCPU       67.63
 TTTTTTTTTTTTTTTTTTTTTTTTTTTTTT MOQGAD      TELAPSE       69.65 TCPU       67.63
 TTTTTTTTTTTTTTTTTTTTTTTTTTTTTT SHELLXN     TELAPSE       73.48 TCPU       71.46
 TTTTTTTTTTTTTTTTTTTTTTTTTTTTTT MONMO3      TELAPSE       74.94 TCPU       72.92
 NUMERICALLY INTEGRATED DENSITY    319.9998459597
 TTTTTTTTTTTTTTTTTTTTTTTTTTTTTT NUMDFT      TELAPSE       75.36 TCPU       73.34
 CYC   9 ETOT(AU) -2.057754602244E+03 DETOT -2.65E-07 tst  1.33E-09 PX  5.02E-05
 TTTTTTTTTTTTTTTTTTTTTTTTTTTTTT DIIS        TELAPSE       75.39 TCPU       73.37
 DIIS TEST: 0.70345E-07 AT SCF   CYCLE   9 - DIIS ACTIVE - HISTORY:     9 CYCLES
 TTTTTTTTTTTTTTTTTTTTTTTTTTTTTT FDIK        TELAPSE       75.96 TCPU       73.93
 INSULATING STATE
 TOP OF VALENCE BANDS -    BAND    160; K   10; EIG -2.4717798E-01 AU
 TOP OF VALENCE BANDS -    BAND    160; K    1; EIG -2.4730257E-01 AU
 BOTTOM OF VIRTUAL BANDS - BAND    161; K   16; EIG -9.9325020E-03 AU
 INDIRECT ENERGY BAND GAP:   6.4558 eV
 BOTTOM OF VIRTUAL BANDS - BAND    161; K    1; EIG -5.2014297E-03 AU
 TTTTTTTTTTTTTTTTTTTTTTTTTTTTTT PDIG        TELAPSE       76.30 TCPU       74.28
 TTTTTTTTTTTTTTTTTTTTTTTTTTTTTT MOQGAD      TELAPSE       76.31 TCPU       74.28
 TTTTTTTTTTTTTTTTTTTTTTTTTTTTTT SHELLXN     TELAPSE       80.15 TCPU       78.10
 TTTTTTTTTTTTTTTTTTTTTTTTTTTTTT MONMO3      TELAPSE       81.62 TCPU       79.56
 NUMERICALLY INTEGRATED DENSITY    319.9998459584
 TTTTTTTTTTTTTTTTTTTTTTTTTTTTTT NUMDFT      TELAPSE       82.10 TCPU       80.05
 CYC  10 ETOT(AU) -2.057754602269E+03 DETOT -2.50E-08 tst  1.01E-10 PX  2.56E-05
 TTTTTTTTTTTTTTTTTTTTTTTTTTTTTT DIIS        TELAPSE       82.13 TCPU       80.08
 DIIS TEST: 0.53813E-08 AT SCF   CYCLE  10 - DIIS ACTIVE - HISTORY:    10 CYCLES
 TTTTTTTTTTTTTTTTTTTTTTTTTTTTTT FDIK        TELAPSE       82.71 TCPU       80.65
 INSULATING STATE
 TOP OF VALENCE BANDS -    BAND    160; K   10; EIG -2.4717788E-01 AU
 TOP OF VALENCE BANDS -    BAND    160; K    1; EIG -2.4730243E-01 AU
 BOTTOM OF VIRTUAL BANDS - BAND    161; K   16; EIG -9.9304001E-03 AU
 INDIRECT ENERGY BAND GAP:   6.4558 eV
 BOTTOM OF VIRTUAL BANDS - BAND    161; K    1; EIG -5.2011687E-03 AU
 TTTTTTTTTTTTTTTTTTTTTTTTTTTTTT PDIG        TELAPSE       83.06 TCPU       81.00
 TTTTTTTTTTTTTTTTTTTTTTTTTTTTTT MOQGAD      TELAPSE       83.06 TCPU       81.00
 TTTTTTTTTTTTTTTTTTTTTTTTTTTTTT SHELLXN     TELAPSE       86.89 TCPU       84.83
 TTTTTTTTTTTTTTTTTTTTTTTTTTTTTT MONMO3      TELAPSE       88.36 TCPU       86.30
 NUMERICALLY INTEGRATED DENSITY    319.9998459581
 TTTTTTTTTTTTTTTTTTTTTTTTTTTTTT NUMDFT      TELAPSE       88.90 TCPU       86.84
 CYC  11 ETOT(AU) -2.057754602286E+03 DETOT -1.65E-08 tst  1.13E-11 PX  5.78E-06
 TTTTTTTTTTTTTTTTTTTTTTTTTTTTTT DIIS        TELAPSE       88.96 TCPU       86.89
 DIIS TEST: 0.43015E-09 AT SCF   CYCLE  11 - DIIS ACTIVE - HISTORY:    11 CYCLES
 TTTTTTTTTTTTTTTTTTTTTTTTTTTTTT FDIK        TELAPSE       89.54 TCPU       87.47
 INSULATING STATE
 TOP OF VALENCE BANDS -    BAND    160; K   10; EIG -2.4717747E-01 AU
 TOP OF VALENCE BANDS -    BAND    160; K    1; EIG -2.4730204E-01 AU
 BOTTOM OF VIRTUAL BANDS - BAND    161; K   16; EIG -9.9304031E-03 AU
 INDIRECT ENERGY BAND GAP:   6.4558 eV
 BOTTOM OF VIRTUAL BANDS - BAND    161; K    1; EIG -5.2009529E-03 AU
 TTTTTTTTTTTTTTTTTTTTTTTTTTTTTT PDIG        TELAPSE       89.88 TCPU       87.82
 TTTTTTTTTTTTTTTTTTTTTTTTTTTTTT MOQGAD      TELAPSE       89.89 TCPU       87.82
 TTTTTTTTTTTTTTTTTTTTTTTTTTTTTT SHELLXN     TELAPSE       93.72 TCPU       91.65
 TTTTTTTTTTTTTTTTTTTTTTTTTTTTTT MONMO3      TELAPSE       95.18 TCPU       93.11
 NUMERICALLY INTEGRATED DENSITY    319.9998459583
 TTTTTTTTTTTTTTTTTTTTTTTTTTTTTT NUMDFT      TELAPSE       95.67 TCPU       93.60
 CYC  12 ETOT(AU) -2.057754602284E+03 DETOT  1.79E-09 tst  1.16E-12 PX  1.58E-06
 TTTTTTTTTTTTTTTTTTTTTTTTTTTTTT DIIS        TELAPSE       95.70 TCPU       93.63
 DIIS TEST: 0.36870E-10 AT SCF   CYCLE  12 - DIIS ACTIVE - HISTORY:    12 CYCLES
 TTTTTTTTTTTTTTTTTTTTTTTTTTTTTT FDIK        TELAPSE       96.28 TCPU       94.21
 INSULATING STATE
 TOP OF VALENCE BANDS -    BAND    160; K   10; EIG -2.4717735E-01 AU
 TOP OF VALENCE BANDS -    BAND    160; K    1; EIG -2.4730192E-01 AU
 BOTTOM OF VIRTUAL BANDS - BAND    161; K   16; EIG -9.9302413E-03 AU
 INDIRECT ENERGY BAND GAP:   6.4558 eV
 BOTTOM OF VIRTUAL BANDS - BAND    161; K    1; EIG -5.2007696E-03 AU
 TTTTTTTTTTTTTTTTTTTTTTTTTTTTTT PDIG        TELAPSE       96.63 TCPU       94.56
 TTTTTTTTTTTTTTTTTTTTTTTTTTTTTT MOQGAD      TELAPSE       96.63 TCPU       94.56
 TTTTTTTTTTTTTTTTTTTTTTTTTTTTTT SHELLXN     TELAPSE      100.46 TCPU       98.38
 TTTTTTTTTTTTTTTTTTTTTTTTTTTTTT MONMO3      TELAPSE      101.93 TCPU       99.85
 NUMERICALLY INTEGRATED DENSITY    319.9998459583
 TTTTTTTTTTTTTTTTTTTTTTTTTTTTTT NUMDFT      TELAPSE      102.46 TCPU      100.39
 CYC  13 ETOT(AU) -2.057754602284E+03 DETOT -3.82E-11 tst  1.44E-13 PX  4.49E-07
 TTTTTTTTTTTTTTTTTTTTTTTTTTTTTT DIIS        TELAPSE      102.50 TCPU      100.42
 DIIS TEST: 0.20621E-11 AT SCF   CYCLE  13 - DIIS ACTIVE - HISTORY:    13 CYCLES
 TTTTTTTTTTTTTTTTTTTTTTTTTTTTTT FDIK        TELAPSE      103.08 TCPU      101.00
 INSULATING STATE
[...]
Note: The following floating-point exceptions are signalling: IEEE_UNDERFLOW_FLAG IEEE_DENORMAL
Note: The following floating-point exceptions are signalling: IEEE_UNDERFLOW_FLAG IEEE_DENORMAL
Note: The following floating-point exceptions are signalling: IEEE_UNDERFLOW_FLAG IEEE_DENORMAL
Note: The following floating-point exceptions are signalling: IEEE_UNDERFLOW_FLAG IEEE_DENORMAL
Note: The following floating-point exceptions are signalling: IEEE_UNDERFLOW_FLAG IEEE_DENORMAL
Note: The following floating-point exceptions are signalling: IEEE_UNDERFLOW_FLAG IEEE_DENORMAL
Note: The following floating-point exceptions are signalling: IEEE_UNDERFLOW_FLAG IEEE_DENORMAL
Note: The following floating-point exceptions are signalling: IEEE_UNDERFLOW_FLAG IEEE_DENORMAL
Note: The following floating-point exceptions are signalling: IEEE_UNDERFLOW_FLAG IEEE_DENORMAL
Note: The following floating-point exceptions are signalling: IEEE_UNDERFLOW_FLAG IEEE_DENORMAL
Note: The following floating-point exceptions are signalling: IEEE_UNDERFLOW_FLAG IEEE_DENORMAL
Note: The following floating-point exceptions are signalling: IEEE_UNDERFLOW_FLAG IEEE_DENORMAL
Note: The following floating-point exceptions are signalling: IEEE_UNDERFLOW_FLAG IEEE_DENORMAL
Note: The following floating-point exceptions are signalling: IEEE_UNDERFLOW_FLAG IEEE_DENORMAL
Note: The following floating-point exceptions are signalling: IEEE_UNDERFLOW_FLAG IEEE_DENORMAL
Note: The following floating-point exceptions are signalling: IEEE_UNDERFLOW_FLAG IEEE_DENORMAL
Note: The following floating-point exceptions are signalling: IEEE_UNDERFLOW_FLAG IEEE_DENORMAL
Note: The following floating-point exceptions are signalling: IEEE_UNDERFLOW_FLAG IEEE_DENORMAL
Note: The following floating-point exceptions are signalling: IEEE_UNDERFLOW_FLAG IEEE_DENORMAL
Note: The following floating-point exceptions are signalling: IEEE_UNDERFLOW_FLAG IEEE_DENORMAL
Note: The following floating-point exceptions are signalling: IEEE_UNDERFLOW_FLAG IEEE_DENORMAL
Note: The following floating-point exceptions are signalling: IEEE_UNDERFLOW_FLAG IEEE_DENORMAL
Note: The following floating-point exceptions are signalling: IEEE_UNDERFLOW_FLAG IEEE_DENORMAL
Note: The following floating-point exceptions are signalling: IEEE_UNDERFLOW_FLAG IEEE_DENORMAL
Note: The following floating-point exceptions are signalling: IEEE_UNDERFLOW_FLAG IEEE_DENORMAL
Note: The following floating-point exceptions are signalling: IEEE_UNDERFLOW_FLAG IEEE_DENORMAL
Note: The following floating-point exceptions are signalling: IEEE_UNDERFLOW_FLAG IEEE_DENORMAL
Note: The following floating-point exceptions are signalling: IEEE_UNDERFLOW_FLAG IEEE_DENORMAL
Note: The following floating-point exceptions are signalling: IEEE_UNDERFLOW_FLAG IEEE_DENORMAL
Note: The following floating-point exceptions are signalling: IEEE_UNDERFLOW_FLAG IEEE_DENORMAL
Note: The following floating-point exceptions are signalling: IEEE_UNDERFLOW_FLAG IEEE_DENORMAL
Note: The following floating-point exceptions are signalling: IEEE_UNDERFLOW_FLAG IEEE_DENORMAL
Note: The following floating-point exceptions are signalling: IEEE_UNDERFLOW_FLAG IEEE_DENORMAL
Note: The following floating-point exceptions are signalling: IEEE_UNDERFLOW_FLAG IEEE_DENORMAL
Note: The following floating-point exceptions are signalling: IEEE_UNDERFLOW_FLAG IEEE_DENORMAL
Note: The following floating-point exceptions are signalling: IEEE_UNDERFLOW_FLAG IEEE_DENORMAL
Note: The following floating-point exceptions are signalling: IEEE_UNDERFLOW_FLAG IEEE_DENORMAL
Note: The following floating-point exceptions are signalling: IEEE_UNDERFLOW_FLAG IEEE_DENORMAL
Note: The following floating-point exceptions are signalling: IEEE_UNDERFLOW_FLAG IEEE_DENORMAL
Note: The following floating-point exceptions are signalling: IEEE_UNDERFLOW_FLAG IEEE_DENORMAL
Note: The following floating-point exceptions are signalling: IEEE_UNDERFLOW_FLAG IEEE_DENORMAL
Note: The following floating-point exceptions are signalling: IEEE_UNDERFLOW_FLAG IEEE_DENORMAL
Note: The following floating-point exceptions are signalling: IEEE_UNDERFLOW_FLAG IEEE_DENORMAL
Note: The following floating-point exceptions are signalling: IEEE_UNDERFLOW_FLAG IEEE_DENORMAL
Note: The following floating-point exceptions are signalling: IEEE_UNDERFLOW_FLAG IEEE_DENORMAL
Note: The following floating-point exceptions are signalling: IEEE_UNDERFLOW_FLAG IEEE_DENORMAL
Note: The following floating-point exceptions are signalling: IEEE_UNDERFLOW_FLAG IEEE_DENORMAL
Note: The following floating-point exceptions are signalling: IEEE_UNDERFLOW_FLAG IEEE_DENORMAL
Note: The following floating-point exceptions are signalling: IEEE_UNDERFLOW_FLAG IEEE_DENORMAL
Note: The following floating-point exceptions are signalling: IEEE_UNDERFLOW_FLAG IEEE_DENORMAL
Note: The following floating-point exceptions are signalling: IEEE_UNDERFLOW_FLAG IEEE_DENORMAL
Note: The following floating-point exceptions are signalling: IEEE_UNDERFLOW_FLAG IEEE_DENORMAL
Note: The following floating-point exceptions are signalling: IEEE_UNDERFLOW_FLAG IEEE_DENORMAL
Note: The following floating-point exceptions are signalling: IEEE_UNDERFLOW_FLAG IEEE_DENORMAL
Note: The following floating-point exceptions are signalling: IEEE_UNDERFLOW_FLAG IEEE_DENORMAL
Note: The following floating-point exceptions are signalling: IEEE_UNDERFLOW_FLAG IEEE_DENORMAL
Note: The following floating-point exceptions are signalling: IEEE_UNDERFLOW_FLAG IEEE_DENORMAL
Note: The following floating-point exceptions are signalling: IEEE_UNDERFLOW_FLAG IEEE_DENORMAL
Note: The following floating-point exceptions are signalling: IEEE_UNDERFLOW_FLAG IEEE_DENORMAL
Note: The following floating-point exceptions are signalling: IEEE_UNDERFLOW_FLAG IEEE_DENORMAL
Note: The following floating-point exceptions are signalling: IEEE_UNDERFLOW_FLAG IEEE_DENORMAL
Note: The following floating-point exceptions are signalling: IEEE_UNDERFLOW_FLAG IEEE_DENORMAL
Note: The following floating-point exceptions are signalling: IEEE_UNDERFLOW_FLAG IEEE_DENORMAL
Note: The following floating-point exceptions are signalling: IEEE_UNDERFLOW_FLAG IEEE_DENORMAL
Note: The following floating-point exceptions are signalling: IEEE_UNDERFLOW_FLAG IEEE_DENORMAL
Note: The following floating-point exceptions are signalling: IEEE_UNDERFLOW_FLAG IEEE_DENORMAL
Note: The following floating-point exceptions are signalling: IEEE_UNDERFLOW_FLAG IEEE_DENORMAL
Note: The following floating-point exceptions are signalling: IEEE_UNDERFLOW_FLAG IEEE_DENORMAL
Note: The following floating-point exceptions are signalling: IEEE_UNDERFLOW_FLAG IEEE_DENORMAL
Note: The following floating-point exceptions are signalling: IEEE_UNDERFLOW_FLAG IEEE_DENORMAL
Note: The following floating-point exceptions are signalling: IEEE_UNDERFLOW_FLAG IEEE_DENORMAL
Note: The following floating-point exceptions are signalling: IEEE_UNDERFLOW_FLAG IEEE_DENORMAL
Note: The following floating-point exceptions are signalling: IEEE_UNDERFLOW_FLAG IEEE_DENORMAL
Note: The following floating-point exceptions are signalling: IEEE_UNDERFLOW_FLAG IEEE_DENORMAL
Note: The following floating-point exceptions are signalling: IEEE_UNDERFLOW_FLAG IEEE_DENORMAL
Note: The following floating-point exceptions are signalling: IEEE_UNDERFLOW_FLAG IEEE_DENORMAL
Note: The following floating-point exceptions are signalling: IEEE_UNDERFLOW_FLAG IEEE_DENORMAL
Note: The following floating-point exceptions are signalling: IEEE_UNDERFLOW_FLAG IEEE_DENORMAL
Note: The following floating-point exceptions are signalling: IEEE_UNDERFLOW_FLAG IEEE_DENORMAL
Note: The following floating-point exceptions are signalling: IEEE_UNDERFLOW_FLAG IEEE_DENORMAL
Note: The following floating-point exceptions are signalling: IEEE_UNDERFLOW_FLAG IEEE_DENORMAL
Note: The following floating-point exceptions are signalling: IEEE_UNDERFLOW_FLAG IEEE_DENORMAL
Note: The following floating-point exceptions are signalling: IEEE_UNDERFLOW_FLAG IEEE_DENORMAL
Note: The following floating-point exceptions are signalling: IEEE_UNDERFLOW_FLAG IEEE_DENORMAL
Note: The following floating-point exceptions are signalling: IEEE_UNDERFLOW_FLAG IEEE_DENORMAL
Note: The following floating-point exceptions are signalling: IEEE_UNDERFLOW_FLAG IEEE_DENORMAL
Note: The following floating-point exceptions are signalling: IEEE_UNDERFLOW_FLAG IEEE_DENORMAL
Note: The following floating-point exceptions are signalling: IEEE_UNDERFLOW_FLAG IEEE_DENORMAL
Note: The following floating-point exceptions are signalling: IEEE_UNDERFLOW_FLAG IEEE_DENORMAL
Note: The following floating-point exceptions are signalling: IEEE_UNDERFLOW_FLAG IEEE_DENORMAL
Note: The following floating-point exceptions are signalling: IEEE_UNDERFLOW_FLAG IEEE_DENORMAL
Note: The following floating-point exceptions are signalling: IEEE_UNDERFLOW_FLAG IEEE_DENORMAL
Note: The following floating-point exceptions are signalling: IEEE_UNDERFLOW_FLAG IEEE_DENORMAL
Note: The following floating-point exceptions are signalling: IEEE_UNDERFLOW_FLAG IEEE_DENORMAL
Note: The following floating-point exceptions are signalling: IEEE_UNDERFLOW_FLAG IEEE_DENORMAL
Note: The following floating-point exceptions are signalling: IEEE_UNDERFLOW_FLAG IEEE_DENORMAL
Note: The following floating-point exceptions are signalling: IEEE_UNDERFLOW_FLAG IEEE_DENORMAL
Note: The following floating-point exceptions are signalling: IEEE_UNDERFLOW_FLAG IEEE_DENORMAL
Note: The following floating-point exceptions are signalling: IEEE_UNDERFLOW_FLAG IEEE_DENORMAL
Note: The following floating-point exceptions are signalling: IEEE_UNDERFLOW_FLAG IEEE_DENORMAL
Note: The following floating-point exceptions are signalling: IEEE_UNDERFLOW_FLAG IEEE_DENORMAL
Note: The following floating-point exceptions are signalling: IEEE_UNDERFLOW_FLAG IEEE_DENORMAL
Note: The following floating-point exceptions are signalling: IEEE_UNDERFLOW_FLAG IEEE_DENORMAL
Note: The following floating-point exceptions are signalling: IEEE_UNDERFLOW_FLAG IEEE_DENORMAL
Note: The following floating-point exceptions are signalling: IEEE_UNDERFLOW_FLAG IEEE_DENORMAL
Note: The following floating-point exceptions are signalling: IEEE_UNDERFLOW_FLAG IEEE_DENORMAL
Note: The following floating-point exceptions are signalling: IEEE_UNDERFLOW_FLAG IEEE_DENORMAL
Note: The following floating-point exceptions are signalling: IEEE_UNDERFLOW_FLAG IEEE_DENORMAL
Note: The following floating-point exceptions are signalling: IEEE_UNDERFLOW_FLAG IEEE_DENORMAL
Note: The following floating-point exceptions are signalling: IEEE_UNDERFLOW_FLAG IEEE_DENORMAL
Note: The following floating-point exceptions are signalling: IEEE_UNDERFLOW_FLAG IEEE_DENORMAL
Note: The following floating-point exceptions are signalling: IEEE_UNDERFLOW_FLAG IEEE_DENORMAL
Note: The following floating-point exceptions are signalling: IEEE_UNDERFLOW_FLAG IEEE_DENORMAL
Note: The following floating-point exceptions are signalling: IEEE_UNDERFLOW_FLAG IEEE_DENORMAL
Note: The following floating-point exceptions are signalling: IEEE_UNDERFLOW_FLAG IEEE_DENORMAL
Note: The following floating-point exceptions are signalling: IEEE_UNDERFLOW_FLAG IEEE_DENORMAL
Note: The following floating-point exceptions are signalling: IEEE_UNDERFLOW_FLAG IEEE_DENORMAL
Note: The following floating-point exceptions are signalling: IEEE_UNDERFLOW_FLAG IEEE_DENORMAL
Note: The following floating-point exceptions are signalling: IEEE_UNDERFLOW_FLAG IEEE_DENORMAL
Note: The following floating-point exceptions are signalling: IEEE_UNDERFLOW_FLAG IEEE_DENORMAL
Note: The following floating-point exceptions are signalling: IEEE_UNDERFLOW_FLAG IEEE_DENORMAL
Note: The following floating-point exceptions are signalling: IEEE_UNDERFLOW_FLAG IEEE_DENORMAL
Note: The following floating-point exceptions are signalling: IEEE_UNDERFLOW_FLAG IEEE_DENORMAL
Note: The following floating-point exceptions are signalling: IEEE_UNDERFLOW_FLAG IEEE_DENORMAL
Note: The following floating-point exceptions are signalling: IEEE_UNDERFLOW_FLAG IEEE_DENORMAL
Note: The following floating-point exceptions are signalling: IEEE_UNDERFLOW_FLAG IEEE_DENORMAL
Note: The following floating-point exceptions are signalling: IEEE_UNDERFLOW_FLAG IEEE_DENORMAL
Note: The following floating-point exceptions are signalling: IEEE_UNDERFLOW_FLAG IEEE_DENORMAL
Note: The following floating-point exceptions are signalling: IEEE_UNDERFLOW_FLAG IEEE_DENORMAL
Note: The following floating-point exceptions are signalling: IEEE_UNDERFLOW_FLAG IEEE_DENORMAL
Note: The following floating-point exceptions are signalling: IEEE_UNDERFLOW_FLAG IEEE_DENORMAL
Note: The following floating-point exceptions are signalling: IEEE_UNDERFLOW_FLAG IEEE_DENORMAL
Note: The following floating-point exceptions are signalling: IEEE_UNDERFLOW_FLAG IEEE_DENORMAL
Note: The following floating-point exceptions are signalling: IEEE_UNDERFLOW_FLAG IEEE_DENORMAL
Note: The following floating-point exceptions are signalling: IEEE_UNDERFLOW_FLAG IEEE_DENORMAL
Note: The following floating-point exceptions are signalling: IEEE_UNDERFLOW_FLAG IEEE_DENORMAL
Note: The following floating-point exceptions are signalling: IEEE_UNDERFLOW_FLAG IEEE_DENORMAL
Note: The following floating-point exceptions are signalling: IEEE_UNDERFLOW_FLAG IEEE_DENORMAL
Note: The following floating-point exceptions are signalling: IEEE_UNDERFLOW_FLAG IEEE_DENORMAL
Note: The following floating-point exceptions are signalling: IEEE_UNDERFLOW_FLAG IEEE_DENORMAL
Note: The following floating-point exceptions are signalling: IEEE_UNDERFLOW_FLAG IEEE_DENORMAL
Note: The following floating-point exceptions are signalling: IEEE_UNDERFLOW_FLAG IEEE_DENORMAL
Note: The following floating-point exceptions are signalling: IEEE_UNDERFLOW_FLAG IEEE_DENORMAL
Note: The following floating-point exceptions are signalling: IEEE_UNDERFLOW_FLAG IEEE_DENORMAL
Note: The following floating-point exceptions are signalling: IEEE_UNDERFLOW_FLAG IEEE_DENORMAL
Note: The following floating-point exceptions are signalling: IEEE_UNDERFLOW_FLAG IEEE_DENORMAL
Note: The following floating-point exceptions are signalling: IEEE_UNDERFLOW_FLAG IEEE_DENORMAL
Note: The following floating-point exceptions are signalling: IEEE_UNDERFLOW_FLAG IEEE_DENORMAL
Note: The following floating-point exceptions are signalling: IEEE_UNDERFLOW_FLAG IEEE_DENORMAL
Note: The following floating-point exceptions are signalling: IEEE_UNDERFLOW_FLAG IEEE_DENORMAL
Note: The following floating-point exceptions are signalling: IEEE_UNDERFLOW_FLAG IEEE_DENORMAL
Note: The following floating-point exceptions are signalling: IEEE_UNDERFLOW_FLAG IEEE_DENORMAL
Note: The following floating-point exceptions are signalling: IEEE_UNDERFLOW_FLAG IEEE_DENORMAL
Note: The following floating-point exceptions are signalling: IEEE_UNDERFLOW_FLAG IEEE_DENORMAL
Note: The following floating-point exceptions are signalling: IEEE_UNDERFLOW_FLAG IEEE_DENORMAL
Note: The following floating-point exceptions are signalling: IEEE_UNDERFLOW_FLAG IEEE_DENORMAL
Note: The following floating-point exceptions are signalling: IEEE_UNDERFLOW_FLAG IEEE_DENORMAL
Note: The following floating-point exceptions are signalling: IEEE_UNDERFLOW_FLAG IEEE_DENORMAL
Note: The following floating-point exceptions are signalling: IEEE_UNDERFLOW_FLAG IEEE_DENORMAL
Note: The following floating-point exceptions are signalling: IEEE_UNDERFLOW_FLAG IEEE_DENORMAL
Note: The following floating-point exceptions are signalling: IEEE_UNDERFLOW_FLAG IEEE_DENORMAL
Note: The following floating-point exceptions are signalling: IEEE_UNDERFLOW_FLAG IEEE_DENORMAL
Note: The following floating-point exceptions are signalling: IEEE_UNDERFLOW_FLAG IEEE_DENORMAL
Note: The following floating-point exceptions are signalling: IEEE_UNDERFLOW_FLAG IEEE_DENORMAL
Note: The following floating-point exceptions are signalling: IEEE_UNDERFLOW_FLAG IEEE_DENORMAL
Note: The following floating-point exceptions are signalling: IEEE_UNDERFLOW_FLAG IEEE_DENORMAL
Note: The following floating-point exceptions are signalling: IEEE_UNDERFLOW_FLAG IEEE_DENORMAL
Note: The following floating-point exceptions are signalling: IEEE_UNDERFLOW_FLAG IEEE_DENORMAL
Note: The following floating-point exceptions are signalling: IEEE_UNDERFLOW_FLAG IEEE_DENORMAL
Note: The following floating-point exceptions are signalling: IEEE_UNDERFLOW_FLAG IEEE_DENORMAL
Note: The following floating-point exceptions are signalling: IEEE_UNDERFLOW_FLAG IEEE_DENORMAL
Note: The following floating-point exceptions are signalling: IEEE_UNDERFLOW_FLAG IEEE_DENORMAL
Note: The following floating-point exceptions are signalling: IEEE_UNDERFLOW_FLAG IEEE_DENORMAL
Note: The following floating-point exceptions are signalling: IEEE_UNDERFLOW_FLAG IEEE_DENORMAL
Note: The following floating-point exceptions are signalling: IEEE_UNDERFLOW_FLAG IEEE_DENORMAL
Note: The following floating-point exceptions are signalling: IEEE_UNDERFLOW_FLAG IEEE_DENORMAL
Note: The following floating-point exceptions are signalling: IEEE_UNDERFLOW_FLAG IEEE_DENORMAL
Note: The following floating-point exceptions are signalling: IEEE_UNDERFLOW_FLAG IEEE_DENORMAL
Note: The following floating-point exceptions are signalling: IEEE_UNDERFLOW_FLAG IEEE_DENORMAL
Note: The following floating-point exceptions are signalling: IEEE_UNDERFLOW_FLAG IEEE_DENORMAL
Note: The following floating-point exceptions are signalling: IEEE_UNDERFLOW_FLAG IEEE_DENORMAL
Note: The following floating-point exceptions are signalling: IEEE_UNDERFLOW_FLAG IEEE_DENORMAL
Note: The following floating-point exceptions are signalling: IEEE_UNDERFLOW_FLAG IEEE_DENORMAL
Note: The following floating-point exceptions are signalling: IEEE_UNDERFLOW_FLAG IEEE_DENORMAL
Note: The following floating-point exceptions are signalling: IEEE_UNDERFLOW_FLAG IEEE_DENORMAL
Note: The following floating-point exceptions are signalling: IEEE_UNDERFLOW_FLAG IEEE_DENORMAL
Note: The following floating-point exceptions are signalling: IEEE_UNDERFLOW_FLAG IEEE_DENORMAL
Note: The following floating-point exceptions are signalling: IEEE_UNDERFLOW_FLAG IEEE_DENORMAL
Note: The following floating-point exceptions are signalling: IEEE_UNDERFLOW_FLAG IEEE_DENORMAL
Note: The following floating-point exceptions are signalling: IEEE_UNDERFLOW_FLAG IEEE_DENORMAL
Note: The following floating-point exceptions are signalling: IEEE_UNDERFLOW_FLAG IEEE_DENORMAL
Note: The following floating-point exceptions are signalling: IEEE_UNDERFLOW_FLAG IEEE_DENORMAL
Note: The following floating-point exceptions are signalling: IEEE_UNDERFLOW_FLAG IEEE_DENORMAL
Note: The following floating-point exceptions are signalling: IEEE_UNDERFLOW_FLAG IEEE_DENORMAL
Note: The following floating-point exceptions are signalling: IEEE_UNDERFLOW_FLAG IEEE_DENORMAL
Note: The following floating-point exceptions are signalling: IEEE_UNDERFLOW_FLAG IEEE_DENORMAL
Note: The following floating-point exceptions are signalling: IEEE_UNDERFLOW_FLAG IEEE_DENORMAL
Note: The following floating-point exceptions are signalling: IEEE_UNDERFLOW_FLAG IEEE_DENORMAL
Note: The following floating-point exceptions are signalling: IEEE_UNDERFLOW_FLAG IEEE_DENORMAL
Note: The following floating-point exceptions are signalling: IEEE_UNDERFLOW_FLAG IEEE_DENORMAL
Note: The following floating-point exceptions are signalling: IEEE_UNDERFLOW_FLAG IEEE_DENORMAL
Note: The following floating-point exceptions are signalling: IEEE_UNDERFLOW_FLAG IEEE_DENORMAL
Note: The following floating-point exceptions are signalling: IEEE_UNDERFLOW_FLAG IEEE_DENORMAL
Note: The following floating-point exceptions are signalling: IEEE_UNDERFLOW_FLAG IEEE_DENORMAL
Note: The following floating-point exceptions are signalling: IEEE_UNDERFLOW_FLAG IEEE_DENORMAL
Note: The following floating-point exceptions are signalling: IEEE_UNDERFLOW_FLAG IEEE_DENORMAL
Note: The following floating-point exceptions are signalling: IEEE_UNDERFLOW_FLAG IEEE_DENORMAL
mv: cannot stat 'slurm-1205628.out': No such file or directory
