Lmod has detected the following error: The following module(s) are unknown:
"epcc-job-env"

Please check the spelling or version number. Also try "module spider ..."
It is also possible your cache file is out-of-date; it may help to try:
  $ module --ignore-cache load "epcc-job-env"

Also make sure that all modulefiles written in TCL start with the string
#%Module




Warning: You have enabled access to software packages installed
by external parties on ARCHER2 or those that are not fully-supported.
The ARCHER2 CSE service does not test these packages. The service desk
will make reasonable efforts to assist with questions on the use of
these packages but some issues may not be able to be resolved by the
service and they may direct you to seek help from external parties.


         512 PROCESSORS WORKING

         
 *******************************************************************************
 *                                                                             *
 *                               CRYSTAL17                                     *
 *                      public : 1.0.2 - March 1st, 2018 STFC/Archer2 build    *
 *                       HTTP://WWW.CRYSTAL.UNITO.IT                           *
 *                                                                             *
 *                              MAIN AUTHORS                                   *
 *                                                                             *
 *  R. DOVESI(1,11), V.R. SAUNDERS(2), C. ROETTI(1,11), R. ORLANDO(1,11),      *
 *  C.M. ZICOVICH-WILSON(1,3), F. PASCALE(4), B. CIVALLERI(1,11),              *
 *  K. DOLL(5), N.M. HARRISON(2,6), I.J. BUSH(7), Ph. D'ARCO(8),               *
 *  M. LLUNELL(9), M. CAUSA'(10), Y. NOEL(8), L. MASCHIO(1,11), A. ERBA(1,11)  *
 *  M. RE'RAT(14), S. CASASSA(1,11)                                            *
 *                                                                             *
 *        CONTRIBUTIONS TO THE CODE HAVE ALSO BEEN GIVEN BY                    *
 *                                                                             *
 *  M. FERRABONE(1,11), M. DE LA PIERRE(1,11), M. FERRERO(1,11),               *
 *  J. BAIMA(1,11), E. ALBANESE(1,11), M.F. PEINTINGER(12), R. BAST(13),       *
 *  B. KIRTMAN(15), V. LACIVITA(1,11), R. DEMICHELIS(1,16)                     *
 *  G. BRANDEBURG(17), S. SALUSTRO(1,11), G. SANSONE(1,11)                     *
 *  M.T. RUGGIERO(18)                                                          *
 *                                                                             *
 * (1) THEORETICAL CHEMISTRY GROUP - UNIVERSITA' DI TORINO - TORINO (ITALY)    *
 * (2) COMPUTATIONAL SCIENCE & ENGINEERING DEPARTMENT - STFC DARESBURY (UK)    *
 * (3) UNIVERSIDAD AUTONOMA DEL ESTADO DE MORELOS - CUERNAVACA (MEXICO)        *
 * (4) UNIVERSITE' DE LORRAINE - NANCY (FRANCE)                                *
 * (5) UNIVERSITAET STUTTGART- STUTTGART (GERMANY)                             *
 * (6) IMPERIAL COLLEGE - LONDON (UK)                                          *
 * (7) OXFORD E-RESEARCH CENTRE - OXFORD (UK)                                  *
 * (8) UPMC - SORBONNE UNIVERSITES - PARIS (FRANCE)                            *
 * (9) UNIVERSIDAD DE BARCELONA - BARCELONA (SPAIN)                            *
 *(10) UNIVERSITA' DI NAPOLI "FEDERICO II" - NAPOLI (ITALY)                    *
 *(11) NIS - NANOSTRUCTURED INTERFACES AND SURFACES - TORINO (ITALY)           *
 *(12) MPI FUER CHEMISCHE ENERGIEKONVERSION - MUELHEIM AN DER RUHR (GERMANY)   *
 *(13) UNIVERSITY OF TROMSO - TROMSO (NORWAY)                                  *
 *(14) UNIVERSITE' DE PAU ET DES PAYS DE L'ADOUR - PAU (FRANCE)                *
 *(15) UNIVERSITY OF CALIFORNIA SANTA BARBARA - SANTA BARBARA (USA)            *
 *(16) CURTIN UNIVERSITY - PERTH (AUSTRALIA)                                   *
 *(17) UNIVERSITY COLLEGE LONDON - LONDON (UK)                                 *
 *(18) CAMBRIDGE UNIVERSITY - CAMBRIDGE (UK)                                   *
 *                                                                             *
 *******************************************************************************
 EEEEEEEEEE STARTING  DATE 07 03 2022 TIME 11:55:03.6
 F2 vol stepp3 freq - PBEh-3c                                                    

 GEOMETRY INPUT FROM EXTERNAL FILE (FORTRAN UNIT 34)
 3D - CRYSTAL 

 *******************************************************************************
 LATTICE PARAMETERS  (ANGSTROMS AND DEGREES) - PRIMITIVE CELL
       A          B          C        ALPHA      BETA     GAMMA        VOLUME
   11.85340    7.32294   17.25351    90.00000  90.00000  90.00000   1497.635620

 NUMBER OF IRREDUCIBLE ATOMS IN THE CELL:   20

 CARTESIAN COORDINATES (ANGSTROM) - IRREDUCIBLE ATOMS AND SYMMETRY RELATED

 AT.IRR.  AT  AT.N.          X                   Y                   Z
     1     1     8   -2.795020488141E+00  1.803539103214E+00 -6.389253463116E+00
     1     2     8   -3.131680067085E+00 -1.803539103214E+00  2.237500913668E+00
     1     3     8    3.131680067085E+00  1.857933221782E+00  6.389253463116E+00
     1     4     8    2.795020488141E+00 -1.857933221782E+00 -2.237500913668E+00
     1     5     8    2.795020488141E+00 -1.803539103214E+00  6.389253463116E+00
     1     6     8    3.131680067085E+00  1.803539103214E+00 -2.237500913668E+00
     1     7     8   -3.131680067085E+00 -1.857933221782E+00 -6.389253463116E+00
     1     8     8   -2.795020488141E+00  1.857933221782E+00  2.237500913668E+00
     9     9     8   -1.274468297876E+00  2.002269985410E+00 -3.392507336000E-03
     9    10     8   -4.652232257351E+00 -2.002269985410E+00 -8.630146884120E+00
     9    11     8    4.652232257351E+00  1.659202339587E+00  3.392507336000E-03
     9    12     8    1.274468297876E+00 -1.659202339587E+00  8.630146884120E+00
     9    13     8    1.274468297876E+00 -2.002269985410E+00  3.392507336000E-03
     9    14     8    4.652232257351E+00  2.002269985410E+00  8.630146884120E+00
     9    15     8   -4.652232257351E+00 -1.659202339587E+00 -3.392507336000E-03
     9    16     8   -1.274468297876E+00  1.659202339587E+00 -8.630146884120E+00
    17    17     7    1.611708512480E-01  1.526639388945E+00 -1.689886710959E+00
    17    18     7    5.765529703978E+00 -1.526639388945E+00  6.936867665826E+00
    17    19     7   -5.765529703978E+00  2.134832936051E+00  1.689886710959E+00
    17    20     7   -1.611708512480E-01 -2.134832936051E+00 -6.936867665826E+00
    17    21     7   -1.611708512480E-01 -1.526639388945E+00  1.689886710959E+00
    17    22     7   -5.765529703978E+00  1.526639388945E+00 -6.936867665826E+00
    17    23     7    5.765529703978E+00 -2.134832936051E+00 -1.689886710959E+00
    17    24     7    1.611708512480E-01  2.134832936051E+00  6.936867665826E+00
    25    25     6   -2.100143326681E+00  1.695292419918E+00 -5.238078571630E+00
    25    26     6   -3.826557228545E+00 -1.695292419918E+00  3.388675805154E+00
    25    27     6    3.826557228545E+00  1.966179905078E+00  5.238078571630E+00
    25    28     6    2.100143326681E+00 -1.966179905078E+00 -3.388675805154E+00
    25    29     6    2.100143326681E+00 -1.695292419918E+00  5.238078571630E+00
    25    30     6    3.826557228545E+00  1.695292419918E+00 -3.388675805154E+00
    25    31     6   -3.826557228545E+00 -1.966179905078E+00 -5.238078571630E+00
    25    32     6   -2.100143326681E+00  1.966179905078E+00  3.388675805154E+00
    33    33     6   -6.714013570070E-01  1.567123668668E+00 -2.825121514811E+00
    33    34     6   -5.255299198219E+00 -1.567123668668E+00  5.801632861973E+00
    33    35     6    5.255299198219E+00  2.094348656328E+00  2.825121514811E+00
    33    36     6    6.714013570070E-01 -2.094348656328E+00 -5.801632861973E+00
    33    37     6    6.714013570070E-01 -1.567123668668E+00  2.825121514811E+00
    33    38     6    5.255299198219E+00  1.567123668668E+00 -5.801632861973E+00
    33    39     6   -5.255299198219E+00 -2.094348656328E+00 -2.825121514811E+00
    33    40     6   -6.714013570070E-01  2.094348656328E+00  5.801632861973E+00
    41    41     6   -1.933260087971E+00  2.155811356452E+00 -2.871109999507E+00
    41    42     6   -3.993440467255E+00 -2.155811356452E+00  5.755644377278E+00
    41    43     6    3.993440467255E+00  1.505660968545E+00  2.871109999507E+00
    41    44     6    1.933260087971E+00 -1.505660968545E+00 -5.755644377278E+00
    41    45     6    1.933260087971E+00 -2.155811356452E+00  2.871109999507E+00
    41    46     6    3.993440467255E+00  2.155811356452E+00 -5.755644377278E+00
    41    47     6   -3.993440467255E+00 -1.505660968545E+00 -2.871109999507E+00
    41    48     6   -1.933260087971E+00  1.505660968545E+00  5.755644377278E+00
    49    49     6   -2.636633915898E+00  2.217189607265E+00 -4.066065299156E+00
    49    50     6   -3.290066639328E+00 -2.217189607265E+00  4.560689077629E+00
    49    51     6    3.290066639328E+00  1.444282717731E+00  4.066065299156E+00
    49    52     6    2.636633915898E+00 -1.444282717731E+00 -4.560689077629E+00
    49    53     6    2.636633915898E+00 -2.217189607265E+00  4.066065299156E+00
    49    54     6    3.290066639328E+00  2.217189607265E+00 -4.560689077629E+00
    49    55     6   -3.290066639328E+00 -1.444282717731E+00 -4.066065299156E+00
    49    56     6   -2.636633915898E+00  1.444282717731E+00  4.560689077629E+00
    57    57     6    1.031476037247E+00  1.603810980379E+00  5.412464872970E-01
    57    58     6    4.895224517980E+00 -1.603810980379E+00 -8.085507889487E+00
    57    59     6   -4.895224517980E+00  2.057661344617E+00 -5.412464872970E-01
    57    60     6   -1.031476037247E+00 -2.057661344617E+00  8.085507889487E+00
    57    61     6   -1.031476037247E+00 -1.603810980379E+00 -5.412464872970E-01
    57    62     6   -4.895224517980E+00  1.603810980379E+00  8.085507889487E+00
    57    63     6    4.895224517980E+00 -2.057661344617E+00  5.412464872970E-01
    57    64     6    1.031476037247E+00  2.057661344617E+00 -8.085507889487E+00
    65    65     6   -8.600992715950E-01  1.065939330118E+00 -5.181070801514E+00
    65    66     6   -5.066601283632E+00 -1.065939330118E+00  3.445683575270E+00
    65    67     6    5.066601283632E+00  2.595532994879E+00  5.181070801514E+00
    65    68     6    8.600992715950E-01 -2.595532994879E+00 -3.445683575270E+00
    65    69     6    8.600992715950E-01 -1.065939330118E+00  5.181070801514E+00
    65    70     6    5.066601283632E+00  1.065939330118E+00 -3.445683575270E+00
    65    71     6   -5.066601283632E+00 -2.595532994879E+00 -5.181070801514E+00
    65    72     6   -8.600992715950E-01  2.595532994879E+00  3.445683575270E+00
    73    73     6   -1.417430782990E-01  1.723156917088E+00 -3.965333176940E-01
    73    74     6   -5.784957476927E+00 -1.723156917088E+00  8.230221059091E+00
    73    75     6    5.784957476927E+00  1.938315407908E+00  3.965333176940E-01
    73    76     6    1.417430782990E-01 -1.938315407908E+00 -8.230221059091E+00
    73    77     6    1.417430782990E-01 -1.723156917088E+00  3.965333176940E-01
    73    78     6    5.784957476927E+00  1.723156917088E+00 -8.230221059091E+00
    73    79     6   -5.784957476927E+00 -1.938315407908E+00 -3.965333176940E-01
    73    80     6   -1.417430782990E-01  1.938315407908E+00  8.230221059091E+00
    81    81     6   -1.572712000300E-01  1.008126124437E+00 -3.992693164587E+00
    81    82     6   -5.769429355196E+00 -1.008126124437E+00  4.634061212197E+00
    81    83     6    5.769429355196E+00  2.653346200560E+00  3.992693164587E+00
    81    84     6    1.572712000300E-01 -2.653346200560E+00 -4.634061212197E+00
    81    85     6    1.572712000300E-01 -1.008126124437E+00  3.992693164587E+00
    81    86     6    5.769429355196E+00  1.008126124437E+00 -4.634061212197E+00
    81    87     6   -5.769429355196E+00 -2.653346200560E+00 -3.992693164587E+00
    81    88     6   -1.572712000300E-01  2.653346200560E+00  4.634061212197E+00
    89    89     1   -2.204065877292E+00  1.677521541510E+00 -7.162627714448E+00
    89    90     1   -3.722634677934E+00 -1.677521541510E+00  1.464126662336E+00
    89    91     1    3.722634677934E+00  1.983950783486E+00  7.162627714448E+00
    89    92     1    2.204065877292E+00 -1.983950783486E+00 -1.464126662336E+00
    89    93     1    2.204065877292E+00 -1.677521541510E+00  7.162627714448E+00
    89    94     1    3.722634677934E+00  1.677521541510E+00 -1.464126662336E+00
    89    95     1   -3.722634677934E+00 -1.983950783486E+00 -7.162627714448E+00
    89    96     1   -2.204065877292E+00  1.983950783486E+00  1.464126662336E+00
    97    97     1    1.144704462591E+00  1.385749857381E+00 -1.897579592531E+00
    97    98     1    4.781996092635E+00 -1.385749857381E+00  6.729174784253E+00
    97    99     1   -4.781996092635E+00  2.275722467615E+00  1.897579592531E+00
    97   100     1   -1.144704462591E+00 -2.275722467615E+00 -6.729174784253E+00
    97   101     1   -1.144704462591E+00 -1.385749857381E+00  1.897579592531E+00
    97   102     1   -4.781996092635E+00  1.385749857381E+00 -6.729174784253E+00
    97   103     1    4.781996092635E+00 -2.275722467615E+00 -1.897579592531E+00
    97   104     1    1.144704462591E+00  2.275722467615E+00  6.729174784253E+00
   105   105     1   -2.373391595730E+00  2.595108264918E+00 -1.991197341350E+00
   105   106     1   -3.553308959496E+00 -2.595108264918E+00  6.635557035434E+00
   105   107     1    3.553308959496E+00  1.066364060079E+00  1.991197341350E+00
   105   108     1    2.373391595730E+00 -1.066364060079E+00 -6.635557035434E+00
   105   109     1    2.373391595730E+00 -2.595108264918E+00  1.991197341350E+00
   105   110     1    3.553308959496E+00  2.595108264918E+00 -6.635557035434E+00
   105   111     1   -3.553308959496E+00 -1.066364060079E+00 -1.991197341350E+00
   105   112     1   -2.373391595730E+00  1.066364060079E+00  6.635557035434E+00
   113   113     1   -3.604640754290E+00  2.701747977803E+00 -4.084967054753E+00
   113   114     1   -2.322059800936E+00 -2.701747977803E+00  4.541787322032E+00
   113   115     1    2.322059800936E+00  9.597243471930E-01  4.084967054753E+00
   113   116     1    3.604640754290E+00 -9.597243471930E-01 -4.541787322032E+00
   113   117     1    3.604640754290E+00 -2.701747977803E+00  4.084967054753E+00
   113   118     1    2.322059800936E+00  2.701747977803E+00 -4.541787322032E+00
   113   119     1   -2.322059800936E+00 -9.597243471930E-01 -4.084967054753E+00
   113   120     1   -3.604640754290E+00  9.597243471930E-01  4.541787322032E+00
   121   121     1    1.505146351765E+00  2.580374547147E+00  6.580105142490E-01
   121   122     1    4.421554203461E+00 -2.580374547147E+00 -7.968743862535E+00
   121   123     1   -4.421554203461E+00  1.081097777849E+00 -6.580105142490E-01
   121   124     1   -1.505146351765E+00 -1.081097777849E+00  7.968743862535E+00
   121   125     1   -1.505146351765E+00 -2.580374547147E+00 -6.580105142490E-01
   121   126     1   -4.421554203461E+00  2.580374547147E+00  7.968743862535E+00
   121   127     1    4.421554203461E+00 -1.081097777849E+00  6.580105142490E-01
   121   128     1    1.505146351765E+00  1.081097777849E+00 -7.968743862535E+00
   129   129     1    1.788211599710E+00  9.098915333020E-01  1.810427302170E-01
   129   130     1    4.138488955516E+00 -9.098915333020E-01 -8.445711646567E+00
   129   131     1   -4.138488955516E+00  2.751580791694E+00 -1.810427302170E-01
   129   132     1   -1.788211599710E+00 -2.751580791694E+00  8.445711646567E+00
   129   133     1   -1.788211599710E+00 -9.098915333020E-01 -1.810427302170E-01
   129   134     1   -4.138488955516E+00  9.098915333020E-01  8.445711646567E+00
   129   135     1    4.138488955516E+00 -2.751580791694E+00  1.810427302170E-01
   129   136     1    1.788211599710E+00  2.751580791694E+00 -8.445711646567E+00
   137   137     1    6.977988763560E-01  1.273790485614E+00  1.521885442491E+00
   137   138     1    5.228901678870E+00 -1.273790485614E+00 -7.104868934294E+00
   137   139     1   -5.228901678870E+00  2.387681839382E+00 -1.521885442491E+00
   137   140     1   -6.977988763560E-01 -2.387681839382E+00  7.104868934294E+00
   137   141     1   -6.977988763560E-01 -1.273790485614E+00 -1.521885442491E+00
   137   142     1   -5.228901678870E+00  1.273790485614E+00  7.104868934294E+00
   137   143     1    5.228901678870E+00 -2.387681839382E+00  1.521885442491E+00
   137   144     1    6.977988763560E-01  2.387681839382E+00 -7.104868934294E+00
   145   145     1   -4.400672322250E-01  6.014621375290E-01 -6.062827300320E+00
   145   146     1   -5.486633323002E+00 -6.014621375290E-01  2.563927076464E+00
   145   147     1    5.486633323002E+00  3.060010187467E+00  6.062827300320E+00
   145   148     1    4.400672322250E-01 -3.060010187467E+00 -2.563927076464E+00
   145   149     1    4.400672322250E-01 -6.014621375290E-01  6.062827300320E+00
   145   150     1    5.486633323002E+00  6.014621375290E-01 -2.563927076464E+00
   145   151     1   -5.486633323002E+00 -3.060010187467E+00 -6.062827300320E+00
   145   152     1   -4.400672322250E-01  3.060010187467E+00  2.563927076464E+00
   153   153     1    8.077520882890E-01  5.150019946550E-01 -3.984565306275E+00
   153   154     1    5.118948466937E+00 -5.150019946550E-01  4.642189070509E+00
   153   155     1   -5.118948466937E+00  3.146470330341E+00  3.984565306275E+00
   153   156     1   -8.077520882890E-01 -3.146470330341E+00 -4.642189070509E+00
   153   157     1   -8.077520882890E-01 -5.150019946550E-01  3.984565306275E+00
   153   158     1   -5.118948466937E+00  5.150019946550E-01 -4.642189070509E+00
   153   159     1    5.118948466937E+00 -3.146470330341E+00 -3.984565306275E+00
   153   160     1    8.077520882890E-01  3.146470330341E+00  4.642189070509E+00

 SPACE  GROUP  N.                     :   61
 NUMBER OF SYMMETRY OPERATORS         :    8
 *******************************************************************************
 LATTICE PARAMETERS (ANGSTROMS AND DEGREES) - BOHR = 0.5291772083 ANGSTROM
 PRIMITIVE CELL - CENTRING CODE 1/0 VOLUME=  1497.635620 - DENSITY  1.340 g/cm^3
         A              B              C           ALPHA      BETA       GAMMA 
    11.85340111     7.32294465    17.25350875    90.000000  90.000000  90.000000
 *******************************************************************************
 ATOMS IN THE ASYMMETRIC UNIT   20 - ATOMS IN THE UNIT CELL:  160
     ATOM                 X/A                 Y/B                 Z/C    
 *******************************************************************************
      1 T   8 O    -2.357990303446E-01  2.462860487709E-01 -3.703161805730E-01
      2 F   8 O    -2.642009696534E-01 -2.462860487709E-01  1.296838194261E-01
      3 F   8 O     2.642009696534E-01  2.537139512292E-01  3.703161805730E-01
      4 F   8 O     2.357990303446E-01 -2.537139512292E-01 -1.296838194261E-01
      5 F   8 O     2.357990303446E-01 -2.462860487709E-01  3.703161805730E-01
      6 F   8 O     2.642009696534E-01  2.462860487709E-01 -1.296838194261E-01
      7 F   8 O    -2.642009696534E-01 -2.537139512292E-01 -3.703161805730E-01
      8 F   8 O    -2.357990303446E-01  2.537139512292E-01  1.296838194261E-01
      9 T   8 O    -1.075192078624E-01  2.734241594210E-01 -1.966270968096E-04
     10 F   8 O    -3.924807921357E-01 -2.734241594210E-01  4.998033729041E-01
     11 F   8 O     3.924807921357E-01  2.265758405793E-01  1.966270968096E-04
     12 F   8 O     1.075192078624E-01 -2.265758405793E-01 -4.998033729041E-01
     13 F   8 O     1.075192078624E-01 -2.734241594210E-01  1.966270968096E-04
     14 F   8 O     3.924807921357E-01  2.734241594210E-01 -4.998033729041E-01
     15 F   8 O    -3.924807921357E-01 -2.265758405793E-01 -1.966270968096E-04
     16 F   8 O    -1.075192078624E-01  2.265758405793E-01  4.998033729041E-01
     17 T   7 N     1.359701319018E-02  2.084734300084E-01 -9.794452450760E-02
     18 F   7 N     4.864029868078E-01 -2.084734300084E-01  4.020554754915E-01
     19 F   7 N    -4.864029868078E-01  2.915265699917E-01  9.794452450760E-02
     20 F   7 N    -1.359701319018E-02 -2.915265699917E-01 -4.020554754915E-01
     21 F   7 N    -1.359701319018E-02 -2.084734300084E-01  9.794452450760E-02
     22 F   7 N    -4.864029868078E-01  2.084734300084E-01 -4.020554754915E-01
     23 F   7 N     4.864029868078E-01 -2.915265699917E-01 -9.794452450760E-02
     24 F   7 N     1.359701319018E-02  2.915265699917E-01  4.020554754915E-01
     25 T   6 C    -1.771764329160E-01  2.315041968698E-01 -3.035949757487E-01
     26 F   6 C    -3.228235670820E-01 -2.315041968698E-01  1.964050242503E-01
     27 F   6 C     3.228235670820E-01  2.684958031303E-01  3.035949757487E-01
     28 F   6 C     1.771764329160E-01 -2.684958031303E-01 -1.964050242503E-01
     29 F   6 C     1.771764329160E-01 -2.315041968698E-01  3.035949757487E-01
     30 F   6 C     3.228235670820E-01  2.315041968698E-01 -1.964050242503E-01
     31 F   6 C    -3.228235670820E-01 -2.684958031303E-01 -3.035949757487E-01
     32 F   6 C    -1.771764329160E-01  2.684958031303E-01  1.964050242503E-01
     33 T   6 C    -5.664208531780E-02  2.140018453738E-01 -1.637418542024E-01
     34 F   6 C    -4.433579146802E-01 -2.140018453738E-01  3.362581457967E-01
     35 F   6 C     4.433579146802E-01  2.859981546263E-01  1.637418542024E-01
     36 F   6 C     5.664208531780E-02 -2.859981546263E-01 -3.362581457967E-01
     37 F   6 C     5.664208531780E-02 -2.140018453738E-01  1.637418542024E-01
     38 F   6 C     4.433579146802E-01  2.140018453738E-01 -3.362581457967E-01
     39 F   6 C    -4.433579146802E-01 -2.859981546263E-01 -1.637418542024E-01
     40 F   6 C    -5.664208531780E-02  2.859981546263E-01  3.362581457967E-01
     41 T   6 C    -1.630975000296E-01  2.943913220012E-01 -1.664073111452E-01
     42 F   6 C    -3.369024999683E-01 -2.943913220012E-01  3.335926888539E-01
     43 F   6 C     3.369024999683E-01  2.056086779991E-01  1.664073111452E-01
     44 F   6 C     1.630975000296E-01 -2.056086779991E-01 -3.335926888539E-01
     45 F   6 C     1.630975000296E-01 -2.943913220012E-01  1.664073111452E-01
     46 F   6 C     3.369024999683E-01  2.943913220012E-01 -3.335926888539E-01
     47 F   6 C    -3.369024999683E-01 -2.056086779991E-01 -1.664073111452E-01
     48 F   6 C    -1.630975000296E-01  2.056086779991E-01  3.335926888539E-01
     49 T   6 C    -2.224369099905E-01  3.027729572240E-01 -2.356659945072E-01
     50 F   6 C    -2.775630900074E-01 -3.027729572240E-01  2.643340054919E-01
     51 F   6 C     2.775630900074E-01  1.972270427762E-01  2.356659945072E-01
     52 F   6 C     2.224369099905E-01 -1.972270427762E-01 -2.643340054919E-01
     53 F   6 C     2.224369099905E-01 -3.027729572240E-01  2.356659945072E-01
     54 F   6 C     2.775630900074E-01  3.027729572240E-01 -2.643340054919E-01
     55 F   6 C    -2.775630900074E-01 -1.972270427762E-01 -2.356659945072E-01
     56 F   6 C    -2.224369099905E-01  1.972270427762E-01  2.643340054919E-01
     57 T   6 C     8.701941557797E-02  2.190117578427E-01  3.137022706666E-02
     58 F   6 C     4.129805844201E-01 -2.190117578427E-01 -4.686297729324E-01
     59 F   6 C    -4.129805844201E-01  2.809882421575E-01 -3.137022706666E-02
     60 F   6 C    -8.701941557797E-02 -2.809882421575E-01  4.686297729324E-01
     61 F   6 C    -8.701941557797E-02 -2.190117578427E-01 -3.137022706666E-02
     62 F   6 C    -4.129805844201E-01  2.190117578427E-01  4.686297729324E-01
     63 F   6 C     4.129805844201E-01 -2.809882421575E-01  3.137022706666E-02
     64 F   6 C     8.701941557797E-02  2.809882421575E-01 -4.686297729324E-01
     65 T   6 C    -7.256139091025E-02  1.455615713440E-01 -3.002908495603E-01
     66 F   6 C    -4.274386090878E-01 -1.455615713440E-01  1.997091504388E-01
     67 F   6 C     4.274386090878E-01  3.544384286562E-01  3.002908495603E-01
     68 F   6 C     7.256139091025E-02 -3.544384286562E-01 -1.997091504388E-01
     69 F   6 C     7.256139091025E-02 -1.455615713440E-01  3.002908495603E-01
     70 F   6 C     4.274386090878E-01  1.455615713440E-01 -1.997091504388E-01
     71 F   6 C    -4.274386090878E-01 -3.544384286562E-01 -3.002908495603E-01
     72 F   6 C    -7.256139091025E-02  3.544384286562E-01  1.997091504388E-01
     73 T   6 C    -1.195800909609E-02  2.353092914734E-01 -2.298276387470E-02
     74 F   6 C    -4.880419909019E-01 -2.353092914734E-01  4.770172361244E-01
     75 F   6 C     4.880419909019E-01  2.646907085267E-01  2.298276387470E-02
     76 F   6 C     1.195800909609E-02 -2.646907085267E-01 -4.770172361244E-01
     77 F   6 C     1.195800909609E-02 -2.353092914734E-01  2.298276387470E-02
     78 F   6 C     4.880419909019E-01  2.353092914734E-01 -4.770172361244E-01
     79 F   6 C    -4.880419909019E-01 -2.646907085267E-01 -2.298276387470E-02
     80 F   6 C    -1.195800909609E-02  2.646907085267E-01  4.770172361244E-01
     81 T   6 C    -1.326802312382E-02  1.376667683045E-01 -2.314134024335E-01
     82 F   6 C    -4.867319768742E-01 -1.376667683045E-01  2.685865975656E-01
     83 F   6 C     4.867319768742E-01  3.623332316958E-01  2.314134024335E-01
     84 F   6 C     1.326802312382E-02 -3.623332316958E-01 -2.685865975656E-01
     85 F   6 C     1.326802312382E-02 -1.376667683045E-01  2.314134024335E-01
     86 F   6 C     4.867319768742E-01  1.376667683045E-01 -2.685865975656E-01
     87 F   6 C    -4.867319768742E-01 -3.623332316958E-01 -2.314134024335E-01
     88 F   6 C    -1.326802312382E-02  3.623332316958E-01  2.685865975656E-01
     89 T   1 H    -1.859437520713E-01  2.290774574559E-01 -4.151403529994E-01
     90 F   1 H    -3.140562479267E-01 -2.290774574559E-01  8.485964699966E-02
     91 F   1 H     3.140562479267E-01  2.709225425442E-01  4.151403529994E-01
     92 F   1 H     1.859437520713E-01 -2.709225425442E-01 -8.485964699966E-02
     93 F   1 H     1.859437520713E-01 -2.290774574559E-01  4.151403529994E-01
     94 F   1 H     3.140562479267E-01  2.290774574559E-01 -8.485964699966E-02
     95 F   1 H    -3.140562479267E-01 -2.709225425442E-01 -4.151403529994E-01
     96 F   1 H    -1.859437520713E-01  2.709225425442E-01  8.485964699966E-02
     97 T   1 H     9.657181528912E-02  1.892339657904E-01 -1.099822430110E-01
     98 F   1 H     4.034281847089E-01 -1.892339657904E-01  3.900177569881E-01
     99 F   1 H    -4.034281847089E-01  3.107660342098E-01  1.099822430110E-01
    100 F   1 H    -9.657181528912E-02 -3.107660342098E-01 -3.900177569881E-01
    101 F   1 H    -9.657181528912E-02 -1.892339657904E-01  1.099822430110E-01
    102 F   1 H    -4.034281847089E-01  1.892339657904E-01 -3.900177569881E-01
    103 F   1 H     4.034281847089E-01 -3.107660342098E-01 -1.099822430110E-01
    104 F   1 H     9.657181528912E-02  3.107660342098E-01  3.900177569881E-01
    105 T   1 H    -2.002287422491E-01  3.543804287694E-01 -1.154082552011E-01
    106 F   1 H    -2.997712577488E-01 -3.543804287694E-01  3.845917447980E-01
    107 F   1 H     2.997712577488E-01  1.456195712309E-01  1.154082552011E-01
    108 F   1 H     2.002287422491E-01 -1.456195712309E-01 -3.845917447980E-01
    109 F   1 H     2.002287422491E-01 -3.543804287694E-01  1.154082552011E-01
    110 F   1 H     2.997712577488E-01  3.543804287694E-01 -3.845917447980E-01
    111 F   1 H    -2.997712577488E-01 -1.456195712309E-01 -1.154082552011E-01
    112 F   1 H    -2.002287422491E-01  1.456195712309E-01  3.845917447980E-01
    113 T   1 H    -3.041018118502E-01  3.689428374700E-01 -2.367615256173E-01
    114 F   1 H    -1.958981881478E-01 -3.689428374700E-01  2.632384743819E-01
    115 F   1 H     1.958981881478E-01  1.310571625301E-01  2.367615256173E-01
    116 F   1 H     3.041018118502E-01 -1.310571625301E-01 -2.632384743819E-01
    117 F   1 H     3.041018118502E-01 -3.689428374700E-01  2.367615256173E-01
    118 F   1 H     1.958981881478E-01  3.689428374700E-01 -2.632384743819E-01
    119 F   1 H    -1.958981881478E-01 -1.310571625301E-01 -2.367615256173E-01
    120 F   1 H    -3.041018118502E-01  1.310571625301E-01  2.632384743819E-01
    121 T   1 H     1.269801247535E-01  3.523684351691E-01  3.813777960449E-02
    122 F   1 H     3.730198752444E-01 -3.523684351691E-01 -4.618622203946E-01
    123 F   1 H    -3.730198752444E-01  1.476315648310E-01 -3.813777960449E-02
    124 F   1 H    -1.269801247535E-01 -1.476315648310E-01  4.618622203946E-01
    125 F   1 H    -1.269801247535E-01 -3.523684351691E-01 -3.813777960449E-02
    126 F   1 H    -3.730198752444E-01  3.523684351691E-01  4.618622203946E-01
    127 F   1 H     3.730198752444E-01 -1.476315648310E-01  3.813777960449E-02
    128 F   1 H     1.269801247535E-01  1.476315648310E-01 -4.618622203946E-01
    129 T   1 H     1.508606334199E-01  1.242521385578E-01  1.049309637839E-02
    130 F   1 H     3.491393665781E-01 -1.242521385578E-01 -4.895069036207E-01
    131 F   1 H    -3.491393665781E-01  3.757478614423E-01 -1.049309637839E-02
    132 F   1 H    -1.508606334199E-01 -3.757478614423E-01  4.895069036207E-01
    133 F   1 H    -1.508606334199E-01 -1.242521385578E-01 -1.049309637839E-02
    134 F   1 H    -3.491393665781E-01  1.242521385578E-01  4.895069036207E-01
    135 F   1 H     3.491393665781E-01 -3.757478614423E-01  1.049309637839E-02
    136 F   1 H     1.508606334199E-01  3.757478614423E-01 -4.895069036207E-01
    137 T   1 H     5.886908490238E-02  1.739451199615E-01  8.820730114815E-02
    138 F   1 H     4.411309150956E-01 -1.739451199615E-01 -4.117926988510E-01
    139 F   1 H    -4.411309150956E-01  3.260548800386E-01 -8.820730114815E-02
    140 F   1 H    -5.886908490238E-02 -3.260548800386E-01  4.117926988510E-01
    141 F   1 H    -5.886908490238E-02 -1.739451199615E-01 -8.820730114815E-02
    142 F   1 H    -4.411309150956E-01  1.739451199615E-01  4.117926988510E-01
    143 F   1 H     4.411309150956E-01 -3.260548800386E-01  8.820730114815E-02
    144 F   1 H     5.886908490238E-02  3.260548800386E-01 -4.117926988510E-01
    145 T   1 H    -3.712581968016E-02  8.213391829062E-02 -3.513967730799E-01
    146 F   1 H    -4.628741803179E-01 -8.213391829062E-02  1.486032269192E-01
    147 F   1 H     4.628741803179E-01  4.178660817095E-01  3.513967730799E-01
    148 F   1 H     3.712581968016E-02 -4.178660817095E-01 -1.486032269192E-01
    149 F   1 H     3.712581968016E-02 -8.213391829062E-02  3.513967730799E-01
    150 F   1 H     4.628741803179E-01  8.213391829062E-02 -1.486032269192E-01
    151 F   1 H    -4.628741803179E-01 -4.178660817095E-01 -3.513967730799E-01
    152 F   1 H    -3.712581968016E-02  4.178660817095E-01  1.486032269192E-01
    153 T   1 H     6.814517460086E-02  7.032717291612E-02 -2.309423180629E-01
    154 F   1 H     4.318548253971E-01 -7.032717291612E-02  2.690576819362E-01
    155 F   1 H    -4.318548253971E-01  4.296728270840E-01  2.309423180629E-01
    156 F   1 H    -6.814517460086E-02 -4.296728270840E-01 -2.690576819362E-01
    157 F   1 H    -6.814517460086E-02 -7.032717291612E-02  2.309423180629E-01
    158 F   1 H    -4.318548253971E-01  7.032717291612E-02 -2.690576819362E-01
    159 F   1 H     4.318548253971E-01 -4.296728270840E-01 -2.309423180629E-01
    160 F   1 H     6.814517460086E-02  4.296728270840E-01  2.690576819362E-01

 T = ATOM BELONGING TO THE ASYMMETRIC UNIT
 *******************************************************************************
 * GEOMETRY EDITING - INPUT COORDINATES ARE GIVEN IN ANGSTROM         
 *******************************************************************************

 GEOMETRY NOW FULLY CONSISTENT WITH THE GROUP

 FRQFRQFRQFRQFRQFRQFRQFRQFRQFRQFRQFRQFRQFRQFRQFRQFRQFRQFRQFRQFRQFRQFRQFRQFRQFRQ

                       FREQUENCY CALCULATION

 INFORMATION **** INPFREQ ****  PRINTING OF EIGENVECTORS
 INFORMATION **** INPFREQ **** NEW DEFAULT - IMPOSING ECKART CONDITIONS TO THE HESSIAN

 GCALCO - MAX INDICES DIRECT LATTICE VECTOR    14    23     9
 NO.OF VECTORS CREATED 6999 STARS 1061 RMAX   256.74744 BOHR

 GEOMETRY FOR WAVE FUNCTION - DIMENSIONALITY OF THE SYSTEM    3
 (NON PERIODIC DIRECTION: LATTICE PARAMETER FORMALLY SET TO 500)
 *******************************************************************************
 LATTICE PARAMETERS (ANGSTROMS AND DEGREES) - BOHR = 0.5291772083 ANGSTROM
 PRIMITIVE CELL - CENTRING CODE 1/0 VOLUME=  1497.635620 - DENSITY  1.340 g/cm^3
         A              B              C           ALPHA      BETA       GAMMA 
    11.85340111     7.32294465    17.25350875    90.000000  90.000000  90.000000
 *******************************************************************************
 ATOMS IN THE ASYMMETRIC UNIT   20 - ATOMS IN THE UNIT CELL:  160
     ATOM                 X/A                 Y/B                 Z/C    
 *******************************************************************************
      1 T   8 O    -2.357990303446E-01  2.462860487709E-01 -3.703161805730E-01
      2 F   8 O    -2.642009696571E-01 -2.462860487709E-01  1.296838194258E-01
      3 F   8 O     2.642009696538E-01  2.537139512298E-01  3.703161805730E-01
      4 F   8 O     2.357990303446E-01 -2.537139512284E-01 -1.296838194282E-01
      5 F   8 O     2.357990303446E-01 -2.462860487709E-01  3.703161805730E-01
      6 F   8 O     2.642009696538E-01  2.462860487709E-01 -1.296838194282E-01
      7 F   8 O    -2.642009696571E-01 -2.537139512284E-01 -3.703161805730E-01
      8 F   8 O    -2.357990303446E-01  2.537139512298E-01  1.296838194258E-01
      9 T   8 O    -1.075192078624E-01  2.734241594210E-01 -1.966270968096E-04
     10 F   8 O    -3.924807921393E-01 -2.734241594210E-01  4.998033729020E-01
     11 F   8 O     3.924807921359E-01  2.265758405797E-01  1.966270968096E-04
     12 F   8 O     1.075192078624E-01 -2.265758405783E-01 -4.998033729043E-01
     13 F   8 O     1.075192078624E-01 -2.734241594210E-01  1.966270968096E-04
     14 F   8 O     3.924807921359E-01  2.734241594210E-01 -4.998033729043E-01
     15 F   8 O    -3.924807921393E-01 -2.265758405783E-01 -1.966270968096E-04
     16 F   8 O    -1.075192078624E-01  2.265758405797E-01  4.998033729020E-01
     17 T   7 N     1.359701319018E-02  2.084734300084E-01 -9.794452450760E-02
     18 F   7 N     4.864029868081E-01 -2.084734300084E-01  4.020554754912E-01
     19 F   7 N    -4.864029868115E-01  2.915265699923E-01  9.794452450760E-02
     20 F   7 N    -1.359701319018E-02 -2.915265699909E-01 -4.020554754936E-01
     21 F   7 N    -1.359701319018E-02 -2.084734300084E-01  9.794452450760E-02
     22 F   7 N    -4.864029868115E-01  2.084734300084E-01 -4.020554754936E-01
     23 F   7 N     4.864029868081E-01 -2.915265699909E-01 -9.794452450760E-02
     24 F   7 N     1.359701319018E-02  2.915265699923E-01  4.020554754912E-01
     25 T   6 C    -1.771764329160E-01  2.315041968698E-01 -3.035949757487E-01
     26 F   6 C    -3.228235670857E-01 -2.315041968698E-01  1.964050242501E-01
     27 F   6 C     3.228235670823E-01  2.684958031309E-01  3.035949757487E-01
     28 F   6 C     1.771764329160E-01 -2.684958031295E-01 -1.964050242524E-01
     29 F   6 C     1.771764329160E-01 -2.315041968698E-01  3.035949757487E-01
     30 F   6 C     3.228235670823E-01  2.315041968698E-01 -1.964050242524E-01
     31 F   6 C    -3.228235670857E-01 -2.684958031295E-01 -3.035949757487E-01
     32 F   6 C    -1.771764329160E-01  2.684958031309E-01  1.964050242501E-01
     33 T   6 C    -5.664208531780E-02  2.140018453738E-01 -1.637418542024E-01
     34 F   6 C    -4.433579146839E-01 -2.140018453738E-01  3.362581457965E-01
     35 F   6 C     4.433579146805E-01  2.859981546269E-01  1.637418542024E-01
     36 F   6 C     5.664208531780E-02 -2.859981546255E-01 -3.362581457988E-01
     37 F   6 C     5.664208531780E-02 -2.140018453738E-01  1.637418542024E-01
     38 F   6 C     4.433579146805E-01  2.140018453738E-01 -3.362581457988E-01
     39 F   6 C    -4.433579146839E-01 -2.859981546255E-01 -1.637418542024E-01
     40 F   6 C    -5.664208531780E-02  2.859981546269E-01  3.362581457965E-01
     41 T   6 C    -1.630975000296E-01  2.943913220012E-01 -1.664073111452E-01
     42 F   6 C    -3.369024999721E-01 -2.943913220012E-01  3.335926888536E-01
     43 F   6 C     3.369024999687E-01  2.056086779995E-01  1.664073111452E-01
     44 F   6 C     1.630975000296E-01 -2.056086779981E-01 -3.335926888559E-01
     45 F   6 C     1.630975000296E-01 -2.943913220012E-01  1.664073111452E-01
     46 F   6 C     3.369024999687E-01  2.943913220012E-01 -3.335926888559E-01
     47 F   6 C    -3.369024999721E-01 -2.056086779981E-01 -1.664073111452E-01
     48 F   6 C    -1.630975000296E-01  2.056086779995E-01  3.335926888536E-01
     49 T   6 C    -2.224369099905E-01  3.027729572240E-01 -2.356659945072E-01
     50 F   6 C    -2.775630900112E-01 -3.027729572240E-01  2.643340054916E-01
     51 F   6 C     2.775630900078E-01  1.972270427767E-01  2.356659945072E-01
     52 F   6 C     2.224369099905E-01 -1.972270427753E-01 -2.643340054939E-01
     53 F   6 C     2.224369099905E-01 -3.027729572240E-01  2.356659945072E-01
     54 F   6 C     2.775630900078E-01  3.027729572240E-01 -2.643340054939E-01
     55 F   6 C    -2.775630900112E-01 -1.972270427753E-01 -2.356659945072E-01
     56 F   6 C    -2.224369099905E-01  1.972270427767E-01  2.643340054916E-01
     57 T   6 C     8.701941557797E-02  2.190117578427E-01  3.137022706666E-02
     58 F   6 C     4.129805844203E-01 -2.190117578427E-01 -4.686297729345E-01
     59 F   6 C    -4.129805844237E-01  2.809882421580E-01 -3.137022706666E-02
     60 F   6 C    -8.701941557797E-02 -2.809882421566E-01  4.686297729322E-01
     61 F   6 C    -8.701941557797E-02 -2.190117578427E-01 -3.137022706666E-02
     62 F   6 C    -4.129805844237E-01  2.190117578427E-01  4.686297729322E-01
     63 F   6 C     4.129805844203E-01 -2.809882421566E-01  3.137022706666E-02
     64 F   6 C     8.701941557797E-02  2.809882421580E-01 -4.686297729345E-01
     65 T   6 C    -7.256139091025E-02  1.455615713440E-01 -3.002908495603E-01
     66 F   6 C    -4.274386090914E-01 -1.455615713440E-01  1.997091504386E-01
     67 F   6 C     4.274386090881E-01  3.544384286566E-01  3.002908495603E-01
     68 F   6 C     7.256139091025E-02 -3.544384286553E-01 -1.997091504409E-01
     69 F   6 C     7.256139091025E-02 -1.455615713440E-01  3.002908495603E-01
     70 F   6 C     4.274386090881E-01  1.455615713440E-01 -1.997091504409E-01
     71 F   6 C    -4.274386090914E-01 -3.544384286553E-01 -3.002908495603E-01
     72 F   6 C    -7.256139091025E-02  3.544384286566E-01  1.997091504386E-01
     73 T   6 C    -1.195800909609E-02  2.353092914734E-01 -2.298276387470E-02
     74 F   6 C    -4.880419909056E-01 -2.353092914734E-01  4.770172361241E-01
     75 F   6 C     4.880419909022E-01  2.646907085273E-01  2.298276387470E-02
     76 F   6 C     1.195800909609E-02 -2.646907085259E-01 -4.770172361265E-01
     77 F   6 C     1.195800909609E-02 -2.353092914734E-01  2.298276387470E-02
     78 F   6 C     4.880419909022E-01  2.353092914734E-01 -4.770172361265E-01
     79 F   6 C    -4.880419909056E-01 -2.646907085259E-01 -2.298276387470E-02
     80 F   6 C    -1.195800909609E-02  2.646907085273E-01  4.770172361241E-01
     81 T   6 C    -1.326802312382E-02  1.376667683045E-01 -2.314134024335E-01
     82 F   6 C    -4.867319768779E-01 -1.376667683045E-01  2.685865975653E-01
     83 F   6 C     4.867319768745E-01  3.623332316962E-01  2.314134024335E-01
     84 F   6 C     1.326802312382E-02 -3.623332316948E-01 -2.685865975676E-01
     85 F   6 C     1.326802312382E-02 -1.376667683045E-01  2.314134024335E-01
     86 F   6 C     4.867319768745E-01  1.376667683045E-01 -2.685865975676E-01
     87 F   6 C    -4.867319768779E-01 -3.623332316948E-01 -2.314134024335E-01
     88 F   6 C    -1.326802312382E-02  3.623332316962E-01  2.685865975653E-01
     89 T   1 H    -1.859437520713E-01  2.290774574559E-01 -4.151403529994E-01
     90 F   1 H    -3.140562479304E-01 -2.290774574559E-01  8.485964699943E-02
     91 F   1 H     3.140562479271E-01  2.709225425448E-01  4.151403529994E-01
     92 F   1 H     1.859437520713E-01 -2.709225425434E-01 -8.485964700174E-02
     93 F   1 H     1.859437520713E-01 -2.290774574559E-01  4.151403529994E-01
     94 F   1 H     3.140562479271E-01  2.290774574559E-01 -8.485964700174E-02
     95 F   1 H    -3.140562479304E-01 -2.709225425434E-01 -4.151403529994E-01
     96 F   1 H    -1.859437520713E-01  2.709225425448E-01  8.485964699943E-02
     97 T   1 H     9.657181528912E-02  1.892339657904E-01 -1.099822430110E-01
     98 F   1 H     4.034281847092E-01 -1.892339657904E-01  3.900177569878E-01
     99 F   1 H    -4.034281847126E-01  3.107660342103E-01  1.099822430110E-01
    100 F   1 H    -9.657181528912E-02 -3.107660342089E-01 -3.900177569902E-01
    101 F   1 H    -9.657181528912E-02 -1.892339657904E-01  1.099822430110E-01
    102 F   1 H    -4.034281847126E-01  1.892339657904E-01 -3.900177569902E-01
    103 F   1 H     4.034281847092E-01 -3.107660342089E-01 -1.099822430110E-01
    104 F   1 H     9.657181528912E-02  3.107660342103E-01  3.900177569878E-01
    105 T   1 H    -2.002287422491E-01  3.543804287694E-01 -1.154082552011E-01
    106 F   1 H    -2.997712577525E-01 -3.543804287694E-01  3.845917447977E-01
    107 F   1 H     2.997712577492E-01  1.456195712313E-01  1.154082552011E-01
    108 F   1 H     2.002287422491E-01 -1.456195712299E-01 -3.845917448001E-01
    109 F   1 H     2.002287422491E-01 -3.543804287694E-01  1.154082552011E-01
    110 F   1 H     2.997712577492E-01  3.543804287694E-01 -3.845917448001E-01
    111 F   1 H    -2.997712577525E-01 -1.456195712299E-01 -1.154082552011E-01
    112 F   1 H    -2.002287422491E-01  1.456195712313E-01  3.845917447977E-01
    113 T   1 H    -3.041018118502E-01  3.689428374700E-01 -2.367615256173E-01
    114 F   1 H    -1.958981881515E-01 -3.689428374700E-01  2.632384743816E-01
    115 F   1 H     1.958981881481E-01  1.310571625307E-01  2.367615256173E-01
    116 F   1 H     3.041018118502E-01 -1.310571625293E-01 -2.632384743839E-01
    117 F   1 H     3.041018118502E-01 -3.689428374700E-01  2.367615256173E-01
    118 F   1 H     1.958981881481E-01  3.689428374700E-01 -2.632384743839E-01
    119 F   1 H    -1.958981881515E-01 -1.310571625293E-01 -2.367615256173E-01
    120 F   1 H    -3.041018118502E-01  1.310571625307E-01  2.632384743816E-01
    121 T   1 H     1.269801247535E-01  3.523684351691E-01  3.813777960449E-02
    122 F   1 H     3.730198752448E-01 -3.523684351691E-01 -4.618622203967E-01
    123 F   1 H    -3.730198752482E-01  1.476315648316E-01 -3.813777960449E-02
    124 F   1 H    -1.269801247535E-01 -1.476315648302E-01  4.618622203943E-01
    125 F   1 H    -1.269801247535E-01 -3.523684351691E-01 -3.813777960449E-02
    126 F   1 H    -3.730198752482E-01  3.523684351691E-01  4.618622203943E-01
    127 F   1 H     3.730198752448E-01 -1.476315648302E-01  3.813777960449E-02
    128 F   1 H     1.269801247535E-01  1.476315648316E-01 -4.618622203967E-01
    129 T   1 H     1.508606334199E-01  1.242521385578E-01  1.049309637839E-02
    130 F   1 H     3.491393665784E-01 -1.242521385578E-01 -4.895069036228E-01
    131 F   1 H    -3.491393665818E-01  3.757478614428E-01 -1.049309637839E-02
    132 F   1 H    -1.508606334199E-01 -3.757478614415E-01  4.895069036204E-01
    133 F   1 H    -1.508606334199E-01 -1.242521385578E-01 -1.049309637839E-02
    134 F   1 H    -3.491393665818E-01  1.242521385578E-01  4.895069036204E-01
    135 F   1 H     3.491393665784E-01 -3.757478614415E-01  1.049309637839E-02
    136 F   1 H     1.508606334199E-01  3.757478614428E-01 -4.895069036228E-01
    137 T   1 H     5.886908490238E-02  1.739451199615E-01  8.820730114815E-02
    138 F   1 H     4.411309150959E-01 -1.739451199615E-01 -4.117926988530E-01
    139 F   1 H    -4.411309150993E-01  3.260548800392E-01 -8.820730114815E-02
    140 F   1 H    -5.886908490238E-02 -3.260548800378E-01  4.117926988507E-01
    141 F   1 H    -5.886908490238E-02 -1.739451199615E-01 -8.820730114815E-02
    142 F   1 H    -4.411309150993E-01  1.739451199615E-01  4.117926988507E-01
    143 F   1 H     4.411309150959E-01 -3.260548800378E-01  8.820730114815E-02
    144 F   1 H     5.886908490238E-02  3.260548800392E-01 -4.117926988530E-01
    145 T   1 H    -3.712581968016E-02  8.213391829062E-02 -3.513967730799E-01
    146 F   1 H    -4.628741803215E-01 -8.213391829062E-02  1.486032269190E-01
    147 F   1 H     4.628741803182E-01  4.178660817101E-01  3.513967730799E-01
    148 F   1 H     3.712581968016E-02 -4.178660817087E-01 -1.486032269213E-01
    149 F   1 H     3.712581968016E-02 -8.213391829062E-02  3.513967730799E-01
    150 F   1 H     4.628741803182E-01  8.213391829062E-02 -1.486032269213E-01
    151 F   1 H    -4.628741803215E-01 -4.178660817087E-01 -3.513967730799E-01
    152 F   1 H    -3.712581968016E-02  4.178660817101E-01  1.486032269190E-01
    153 T   1 H     6.814517460086E-02  7.032717291612E-02 -2.309423180629E-01
    154 F   1 H     4.318548253975E-01 -7.032717291612E-02  2.690576819359E-01
    155 F   1 H    -4.318548254008E-01  4.296728270846E-01  2.309423180629E-01
    156 F   1 H    -6.814517460086E-02 -4.296728270832E-01 -2.690576819383E-01
    157 F   1 H    -6.814517460086E-02 -7.032717291612E-02  2.309423180629E-01
    158 F   1 H    -4.318548254008E-01  7.032717291612E-02 -2.690576819383E-01
    159 F   1 H     4.318548253975E-01 -4.296728270832E-01 -2.309423180629E-01
    160 F   1 H     6.814517460086E-02  4.296728270846E-01  2.690576819359E-01

 T = ATOM BELONGING TO THE ASYMMETRIC UNIT

 ****    8 SYMMOPS - TRANSLATORS IN FRACTIONAL UNITS
 **** MATRICES AND TRANSLATORS IN THE CRYSTALLOGRAPHIC REFERENCE FRAME
   V INV                    ROTATION MATRICES                   TRANSLATORS
   1   1  1.00  0.00  0.00  0.00  1.00  0.00  0.00  0.00  1.00  0.00  0.00  0.00
   2   2 -1.00  0.00  0.00  0.00 -1.00  0.00  0.00  0.00  1.00  0.50  0.00  0.50
   3   3  1.00  0.00  0.00  0.00 -1.00  0.00  0.00  0.00 -1.00  0.50  0.50  0.00
   4   4 -1.00  0.00  0.00  0.00  1.00  0.00  0.00  0.00 -1.00  0.00  0.50  0.50
   5   5 -1.00  0.00  0.00  0.00 -1.00  0.00  0.00  0.00 -1.00  0.00  0.00  0.00
   6   6  1.00  0.00  0.00  0.00  1.00  0.00  0.00  0.00 -1.00  0.50  0.00  0.50
   7   7 -1.00  0.00  0.00  0.00  1.00  0.00  0.00  0.00  1.00  0.50  0.50  0.00
   8   8  1.00  0.00  0.00  0.00 -1.00  0.00  0.00  0.00  1.00  0.00  0.50  0.50

 DIRECT LATTICE VECTORS CARTESIAN COMPONENTS (ANGSTROM)
          X                    Y                    Z
   0.118534011105E+02   0.000000000000E+00   0.000000000000E+00
   0.000000000000E+00   0.732294464999E+01   0.000000000000E+00
   0.000000000000E+00   0.000000000000E+00   0.172535087536E+02


 CARTESIAN COORDINATES - PRIMITIVE CELL
 *******************************************************************************
 *      ATOM          X(ANGSTROM)         Y(ANGSTROM)         Z(ANGSTROM)
 *******************************************************************************
    1     8 O    -2.795020488141E+00  1.803539103214E+00 -6.389253463116E+00
    2     8 O    -3.131680067129E+00 -1.803539103214E+00  2.237500913664E+00
    3     8 O     3.131680067089E+00  1.857933221786E+00  6.389253463116E+00
    4     8 O     2.795020488141E+00 -1.857933221776E+00 -2.237500913704E+00
    5     8 O     2.795020488141E+00 -1.803539103214E+00  6.389253463116E+00
    6     8 O     3.131680067089E+00  1.803539103214E+00 -2.237500913704E+00
    7     8 O    -3.131680067129E+00 -1.857933221776E+00 -6.389253463116E+00
    8     8 O    -2.795020488141E+00  1.857933221786E+00  2.237500913664E+00
    9     8 O    -1.274468297876E+00  2.002269985410E+00 -3.392507336000E-03
   10     8 O    -4.652232257394E+00 -2.002269985410E+00 -8.630146884156E+00
   11     8 O     4.652232257354E+00  1.659202339590E+00  3.392507336000E-03
   12     8 O     1.274468297876E+00 -1.659202339580E+00  8.630146884116E+00
   13     8 O     1.274468297876E+00 -2.002269985410E+00  3.392507336000E-03
   14     8 O     4.652232257354E+00  2.002269985410E+00  8.630146884116E+00
   15     8 O    -4.652232257394E+00 -1.659202339580E+00 -3.392507336000E-03
   16     8 O    -1.274468297876E+00  1.659202339590E+00 -8.630146884156E+00
   17     7 N     1.611708512480E-01  1.526639388945E+00 -1.689886710959E+00
   18     7 N     5.765529703982E+00 -1.526639388945E+00  6.936867665821E+00
   19     7 N    -5.765529704022E+00  2.134832936055E+00  1.689886710959E+00
   20     7 N    -1.611708512480E-01 -2.134832936045E+00 -6.936867665861E+00
   21     7 N    -1.611708512480E-01 -1.526639388945E+00  1.689886710959E+00
   22     7 N    -5.765529704022E+00  1.526639388945E+00 -6.936867665861E+00
   23     7 N     5.765529703982E+00 -2.134832936045E+00 -1.689886710959E+00
   24     7 N     1.611708512480E-01  2.134832936055E+00  6.936867665821E+00
   25     6 C    -2.100143326681E+00  1.695292419918E+00 -5.238078571630E+00
   26     6 C    -3.826557228589E+00 -1.695292419918E+00  3.388675805150E+00
   27     6 C     3.826557228549E+00  1.966179905082E+00  5.238078571630E+00
   28     6 C     2.100143326681E+00 -1.966179905072E+00 -3.388675805190E+00
   29     6 C     2.100143326681E+00 -1.695292419918E+00  5.238078571630E+00
   30     6 C     3.826557228549E+00  1.695292419918E+00 -3.388675805190E+00
   31     6 C    -3.826557228589E+00 -1.966179905072E+00 -5.238078571630E+00
   32     6 C    -2.100143326681E+00  1.966179905082E+00  3.388675805150E+00
   33     6 C    -6.714013570070E-01  1.567123668668E+00 -2.825121514811E+00
   34     6 C    -5.255299198263E+00 -1.567123668668E+00  5.801632861969E+00
   35     6 C     5.255299198223E+00  2.094348656332E+00  2.825121514811E+00
   36     6 C     6.714013570070E-01 -2.094348656322E+00 -5.801632862009E+00
   37     6 C     6.714013570070E-01 -1.567123668668E+00  2.825121514811E+00
   38     6 C     5.255299198223E+00  1.567123668668E+00 -5.801632862009E+00
   39     6 C    -5.255299198263E+00 -2.094348656322E+00 -2.825121514811E+00
   40     6 C    -6.714013570070E-01  2.094348656332E+00  5.801632861969E+00
   41     6 C    -1.933260087971E+00  2.155811356452E+00 -2.871109999507E+00
   42     6 C    -3.993440467299E+00 -2.155811356452E+00  5.755644377273E+00
   43     6 C     3.993440467259E+00  1.505660968548E+00  2.871109999507E+00
   44     6 C     1.933260087971E+00 -1.505660968538E+00 -5.755644377313E+00
   45     6 C     1.933260087971E+00 -2.155811356452E+00  2.871109999507E+00
   46     6 C     3.993440467259E+00  2.155811356452E+00 -5.755644377313E+00
   47     6 C    -3.993440467299E+00 -1.505660968538E+00 -2.871109999507E+00
   48     6 C    -1.933260087971E+00  1.505660968548E+00  5.755644377273E+00
   49     6 C    -2.636633915898E+00  2.217189607265E+00 -4.066065299156E+00
   50     6 C    -3.290066639372E+00 -2.217189607265E+00  4.560689077624E+00
   51     6 C     3.290066639332E+00  1.444282717735E+00  4.066065299156E+00
   52     6 C     2.636633915898E+00 -1.444282717725E+00 -4.560689077664E+00
   53     6 C     2.636633915898E+00 -2.217189607265E+00  4.066065299156E+00
   54     6 C     3.290066639332E+00  2.217189607265E+00 -4.560689077664E+00
   55     6 C    -3.290066639372E+00 -1.444282717725E+00 -4.066065299156E+00
   56     6 C    -2.636633915898E+00  1.444282717735E+00  4.560689077624E+00
   57     6 C     1.031476037247E+00  1.603810980379E+00  5.412464872970E-01
   58     6 C     4.895224517983E+00 -1.603810980379E+00 -8.085507889523E+00
   59     6 C    -4.895224518023E+00  2.057661344621E+00 -5.412464872970E-01
   60     6 C    -1.031476037247E+00 -2.057661344611E+00  8.085507889483E+00
   61     6 C    -1.031476037247E+00 -1.603810980379E+00 -5.412464872970E-01
   62     6 C    -4.895224518023E+00  1.603810980379E+00  8.085507889483E+00
   63     6 C     4.895224517983E+00 -2.057661344611E+00  5.412464872970E-01
   64     6 C     1.031476037247E+00  2.057661344621E+00 -8.085507889523E+00
   65     6 C    -8.600992715950E-01  1.065939330118E+00 -5.181070801514E+00
   66     6 C    -5.066601283675E+00 -1.065939330118E+00  3.445683575266E+00
   67     6 C     5.066601283635E+00  2.595532994882E+00  5.181070801514E+00
   68     6 C     8.600992715950E-01 -2.595532994872E+00 -3.445683575306E+00
   69     6 C     8.600992715950E-01 -1.065939330118E+00  5.181070801514E+00
   70     6 C     5.066601283635E+00  1.065939330118E+00 -3.445683575306E+00
   71     6 C    -5.066601283675E+00 -2.595532994872E+00 -5.181070801514E+00
   72     6 C    -8.600992715950E-01  2.595532994882E+00  3.445683575266E+00
   73     6 C    -1.417430782990E-01  1.723156917088E+00 -3.965333176940E-01
   74     6 C    -5.784957476971E+00 -1.723156917088E+00  8.230221059086E+00
   75     6 C     5.784957476931E+00  1.938315407912E+00  3.965333176940E-01
   76     6 C     1.417430782990E-01 -1.938315407902E+00 -8.230221059126E+00
   77     6 C     1.417430782990E-01 -1.723156917088E+00  3.965333176940E-01
   78     6 C     5.784957476931E+00  1.723156917088E+00 -8.230221059126E+00
   79     6 C    -5.784957476971E+00 -1.938315407902E+00 -3.965333176940E-01
   80     6 C    -1.417430782990E-01  1.938315407912E+00  8.230221059086E+00
   81     6 C    -1.572712000300E-01  1.008126124437E+00 -3.992693164587E+00
   82     6 C    -5.769429355240E+00 -1.008126124437E+00  4.634061212193E+00
   83     6 C     5.769429355200E+00  2.653346200563E+00  3.992693164587E+00
   84     6 C     1.572712000300E-01 -2.653346200553E+00 -4.634061212233E+00
   85     6 C     1.572712000300E-01 -1.008126124437E+00  3.992693164587E+00
   86     6 C     5.769429355200E+00  1.008126124437E+00 -4.634061212233E+00
   87     6 C    -5.769429355240E+00 -2.653346200553E+00 -3.992693164587E+00
   88     6 C    -1.572712000300E-01  2.653346200563E+00  4.634061212193E+00
   89     1 H    -2.204065877292E+00  1.677521541510E+00 -7.162627714448E+00
   90     1 H    -3.722634677978E+00 -1.677521541510E+00  1.464126662332E+00
   91     1 H     3.722634677938E+00  1.983950783490E+00  7.162627714448E+00
   92     1 H     2.204065877292E+00 -1.983950783480E+00 -1.464126662372E+00
   93     1 H     2.204065877292E+00 -1.677521541510E+00  7.162627714448E+00
   94     1 H     3.722634677938E+00  1.677521541510E+00 -1.464126662372E+00
   95     1 H    -3.722634677978E+00 -1.983950783480E+00 -7.162627714448E+00
   96     1 H    -2.204065877292E+00  1.983950783490E+00  1.464126662332E+00
   97     1 H     1.144704462591E+00  1.385749857381E+00 -1.897579592531E+00
   98     1 H     4.781996092639E+00 -1.385749857381E+00  6.729174784249E+00
   99     1 H    -4.781996092679E+00  2.275722467619E+00  1.897579592531E+00
  100     1 H    -1.144704462591E+00 -2.275722467609E+00 -6.729174784289E+00
  101     1 H    -1.144704462591E+00 -1.385749857381E+00  1.897579592531E+00
  102     1 H    -4.781996092679E+00  1.385749857381E+00 -6.729174784289E+00
  103     1 H     4.781996092639E+00 -2.275722467609E+00 -1.897579592531E+00
  104     1 H     1.144704462591E+00  2.275722467619E+00  6.729174784249E+00
  105     1 H    -2.373391595730E+00  2.595108264918E+00 -1.991197341350E+00
  106     1 H    -3.553308959540E+00 -2.595108264918E+00  6.635557035430E+00
  107     1 H     3.553308959500E+00  1.066364060082E+00  1.991197341350E+00
  108     1 H     2.373391595730E+00 -1.066364060072E+00 -6.635557035470E+00
  109     1 H     2.373391595730E+00 -2.595108264918E+00  1.991197341350E+00
  110     1 H     3.553308959500E+00  2.595108264918E+00 -6.635557035470E+00
  111     1 H    -3.553308959540E+00 -1.066364060072E+00 -1.991197341350E+00
  112     1 H    -2.373391595730E+00  1.066364060082E+00  6.635557035430E+00
  113     1 H    -3.604640754290E+00  2.701747977803E+00 -4.084967054753E+00
  114     1 H    -2.322059800980E+00 -2.701747977803E+00  4.541787322027E+00
  115     1 H     2.322059800940E+00  9.597243471970E-01  4.084967054753E+00
  116     1 H     3.604640754290E+00 -9.597243471870E-01 -4.541787322067E+00
  117     1 H     3.604640754290E+00 -2.701747977803E+00  4.084967054753E+00
  118     1 H     2.322059800940E+00  2.701747977803E+00 -4.541787322067E+00
  119     1 H    -2.322059800980E+00 -9.597243471870E-01 -4.084967054753E+00
  120     1 H    -3.604640754290E+00  9.597243471970E-01  4.541787322027E+00
  121     1 H     1.505146351765E+00  2.580374547147E+00  6.580105142490E-01
  122     1 H     4.421554203465E+00 -2.580374547147E+00 -7.968743862571E+00
  123     1 H    -4.421554203505E+00  1.081097777853E+00 -6.580105142490E-01
  124     1 H    -1.505146351765E+00 -1.081097777843E+00  7.968743862531E+00
  125     1 H    -1.505146351765E+00 -2.580374547147E+00 -6.580105142490E-01
  126     1 H    -4.421554203505E+00  2.580374547147E+00  7.968743862531E+00
  127     1 H     4.421554203465E+00 -1.081097777843E+00  6.580105142490E-01
  128     1 H     1.505146351765E+00  1.081097777853E+00 -7.968743862571E+00
  129     1 H     1.788211599710E+00  9.098915333020E-01  1.810427302170E-01
  130     1 H     4.138488955520E+00 -9.098915333020E-01 -8.445711646603E+00
  131     1 H    -4.138488955560E+00  2.751580791698E+00 -1.810427302170E-01
  132     1 H    -1.788211599710E+00 -2.751580791688E+00  8.445711646563E+00
  133     1 H    -1.788211599710E+00 -9.098915333020E-01 -1.810427302170E-01
  134     1 H    -4.138488955560E+00  9.098915333020E-01  8.445711646563E+00
  135     1 H     4.138488955520E+00 -2.751580791688E+00  1.810427302170E-01
  136     1 H     1.788211599710E+00  2.751580791698E+00 -8.445711646603E+00
  137     1 H     6.977988763560E-01  1.273790485614E+00  1.521885442491E+00
  138     1 H     5.228901678874E+00 -1.273790485614E+00 -7.104868934329E+00
  139     1 H    -5.228901678914E+00  2.387681839386E+00 -1.521885442491E+00
  140     1 H    -6.977988763560E-01 -2.387681839376E+00  7.104868934289E+00
  141     1 H    -6.977988763560E-01 -1.273790485614E+00 -1.521885442491E+00
  142     1 H    -5.228901678914E+00  1.273790485614E+00  7.104868934289E+00
  143     1 H     5.228901678874E+00 -2.387681839376E+00  1.521885442491E+00
  144     1 H     6.977988763560E-01  2.387681839386E+00 -7.104868934329E+00
  145     1 H    -4.400672322250E-01  6.014621375290E-01 -6.062827300320E+00
  146     1 H    -5.486633323045E+00 -6.014621375290E-01  2.563927076460E+00
  147     1 H     5.486633323005E+00  3.060010187471E+00  6.062827300320E+00
  148     1 H     4.400672322250E-01 -3.060010187461E+00 -2.563927076500E+00
  149     1 H     4.400672322250E-01 -6.014621375290E-01  6.062827300320E+00
  150     1 H     5.486633323005E+00  6.014621375290E-01 -2.563927076500E+00
  151     1 H    -5.486633323045E+00 -3.060010187461E+00 -6.062827300320E+00
  152     1 H    -4.400672322250E-01  3.060010187471E+00  2.563927076460E+00
  153     1 H     8.077520882890E-01  5.150019946550E-01 -3.984565306275E+00
  154     1 H     5.118948466941E+00 -5.150019946550E-01  4.642189070505E+00
  155     1 H    -5.118948466981E+00  3.146470330345E+00  3.984565306275E+00
  156     1 H    -8.077520882890E-01 -3.146470330335E+00 -4.642189070545E+00
  157     1 H    -8.077520882890E-01 -5.150019946550E-01  3.984565306275E+00
  158     1 H    -5.118948466981E+00  5.150019946550E-01 -4.642189070545E+00
  159     1 H     5.118948466941E+00 -3.146470330335E+00 -3.984565306275E+00
  160     1 H     8.077520882890E-01  3.146470330345E+00  4.642189070505E+00

 *******************************************************************************
 STARTING BASIS SET HANDLING 
 *******************************************************************************

 Loading internal basis set: DEF2-MSVP           

 Please cite in your publication:
 Fully Optimized Contracted Gaussian Basis Sets for Atoms Li to Kr. A. Schfer, H. Horn and R. Ahlrichs; J. Chem. Phys. 97, 2571 (1992).                                                                                                                         
 S. Grimme, J. G. Brandenburg, C. Bannwarth, and A. Hansen, J. Chem. Phys., 143, 054107 (2015).                                                                                                                                                                  

 *******************************************************************************
 LOCAL ATOMIC FUNCTIONS BASIS SET
 *******************************************************************************
   ATOM   X(AU)   Y(AU)   Z(AU)  N. TYPE  EXPONENT  S COEF   P COEF   D/F/G COEF
 *******************************************************************************
   1 O   -5.282   3.408 -12.074
                                  1 S  
                                         6.773E+03 1.727E-03 0.000E+00 0.000E+00
                                         1.017E+03 1.325E-02 0.000E+00 0.000E+00
                                         2.313E+02 6.603E-02 0.000E+00 0.000E+00
                                         6.501E+01 2.353E-01 0.000E+00 0.000E+00
                                         2.050E+01 5.498E-01 0.000E+00 0.000E+00
                                  2 S  
                                         6.716E+00 1.000E+00 0.000E+00 0.000E+00
                                  3 S  
                                         1.147E+00 1.000E+00 0.000E+00 0.000E+00
                                  4 S  
                                         3.342E-01 1.000E+00 0.000E+00 0.000E+00
                           5-     7 P  
                                         1.769E+01 0.000E+00 4.359E-02 0.000E+00
                                         3.854E+00 0.000E+00 2.318E-01 0.000E+00
                                         1.047E+00 0.000E+00 5.146E-01 0.000E+00
                           8-    10 P  
                                         2.759E-01 0.000E+00 1.000E+00 0.000E+00
                          11-    15 D  
                                         8.000E-01 0.000E+00 0.000E+00 1.000E+00
   2 O   -5.918  -3.408   4.228
   3 O    5.918   3.511  12.074
   4 O    5.282  -3.511  -4.228
   5 O    5.282  -3.408  12.074
   6 O    5.918   3.408  -4.228
   7 O   -5.918  -3.511 -12.074
   8 O   -5.282   3.511   4.228
   9 O   -2.408   3.784  -0.006
  10 O   -8.791  -3.784 -16.309
  11 O    8.791   3.135   0.006
  12 O    2.408  -3.135  16.309
  13 O    2.408  -3.784   0.006
  14 O    8.791   3.784  16.309
  15 O   -8.791  -3.135  -0.006
  16 O   -2.408   3.135 -16.309
  17 N    0.305   2.885  -3.193
                                241 S  
                                         5.072E+03 1.707E-03 0.000E+00 0.000E+00
                                         7.614E+02 1.309E-02 0.000E+00 0.000E+00
                                         1.732E+02 6.510E-02 0.000E+00 0.000E+00
                                         4.867E+01 2.305E-01 0.000E+00 0.000E+00
                                         1.533E+01 5.330E-01 0.000E+00 0.000E+00
                                242 S  
                                         5.019E+00 1.000E+00 0.000E+00 0.000E+00
                                243 S  
                                         8.355E-01 1.000E+00 0.000E+00 0.000E+00
                                244 S  
                                         2.463E-01 1.000E+00 0.000E+00 0.000E+00
                         245-   247 P  
                                         1.355E+01 0.000E+00 4.063E-02 0.000E+00
                                         2.918E+00 0.000E+00 2.209E-01 0.000E+00
                                         7.983E-01 0.000E+00 5.186E-01 0.000E+00
                         248-   250 P  
                                         2.190E-01 0.000E+00 1.000E+00 0.000E+00
                         251-   255 D  
                                         8.000E-01 0.000E+00 0.000E+00 1.000E+00
  18 N   10.895  -2.885  13.109
  19 N  -10.895   4.034   3.193
  20 N   -0.305  -4.034 -13.109
  21 N   -0.305  -2.885   3.193
  22 N  -10.895   2.885 -13.109
  23 N   10.895  -4.034  -3.193
  24 N    0.305   4.034  13.109
  25 C   -3.969   3.204  -9.899
                                361 S  
                                         3.624E+03 1.634E-03 0.000E+00 0.000E+00
                                         5.440E+02 1.252E-02 0.000E+00 0.000E+00
                                         1.237E+02 6.211E-02 0.000E+00 0.000E+00
                                         3.476E+01 2.182E-01 0.000E+00 0.000E+00
                                         1.093E+01 4.980E-01 0.000E+00 0.000E+00
                                362 S  
                                         3.574E+00 1.000E+00 0.000E+00 0.000E+00
                                363 S  
                                         5.748E-01 1.000E+00 0.000E+00 0.000E+00
                                364 S  
                                         1.730E-01 1.000E+00 0.000E+00 0.000E+00
                         365-   367 P  
                                         9.443E+00 0.000E+00 3.790E-02 0.000E+00
                                         2.002E+00 0.000E+00 2.082E-01 0.000E+00
                                         5.463E-01 0.000E+00 5.047E-01 0.000E+00
                         368-   370 P  
                                         1.520E-01 0.000E+00 1.000E+00 0.000E+00
                         371-   375 D  
                                         8.000E-01 0.000E+00 0.000E+00 1.000E+00
  26 C   -7.231  -3.204   6.404
  27 C    7.231   3.716   9.899
  28 C    3.969  -3.716  -6.404
  29 C    3.969  -3.204   9.899
  30 C    7.231   3.204  -6.404
  31 C   -7.231  -3.716  -9.899
  32 C   -3.969   3.716   6.404
  33 C   -1.269   2.961  -5.339
  34 C   -9.931  -2.961  10.963
  35 C    9.931   3.958   5.339
  36 C    1.269  -3.958 -10.963
  37 C    1.269  -2.961   5.339
  38 C    9.931   2.961 -10.963
  39 C   -9.931  -3.958  -5.339
  40 C   -1.269   3.958  10.963
  41 C   -3.653   4.074  -5.426
  42 C   -7.547  -4.074  10.877
  43 C    7.547   2.845   5.426
  44 C    3.653  -2.845 -10.877
  45 C    3.653  -4.074   5.426
  46 C    7.547   4.074 -10.877
  47 C   -7.547  -2.845  -5.426
  48 C   -3.653   2.845  10.877
  49 C   -4.983   4.190  -7.684
  50 C   -6.217  -4.190   8.618
  51 C    6.217   2.729   7.684
  52 C    4.983  -2.729  -8.618
  53 C    4.983  -4.190   7.684
  54 C    6.217   4.190  -8.618
  55 C   -6.217  -2.729  -7.684
  56 C   -4.983   2.729   8.618
  57 C    1.949   3.031   1.023
  58 C    9.251  -3.031 -15.279
  59 C   -9.251   3.888  -1.023
  60 C   -1.949  -3.888  15.279
  61 C   -1.949  -3.031  -1.023
  62 C   -9.251   3.031  15.279
  63 C    9.251  -3.888   1.023
  64 C    1.949   3.888 -15.279
  65 C   -1.625   2.014  -9.791
  66 C   -9.574  -2.014   6.511
  67 C    9.574   4.905   9.791
  68 C    1.625  -4.905  -6.511
  69 C    1.625  -2.014   9.791
  70 C    9.574   2.014  -6.511
  71 C   -9.574  -4.905  -9.791
  72 C   -1.625   4.905   6.511
  73 C   -0.268   3.256  -0.749
  74 C  -10.932  -3.256  15.553
  75 C   10.932   3.663   0.749
  76 C    0.268  -3.663 -15.553
  77 C    0.268  -3.256   0.749
  78 C   10.932   3.256 -15.553
  79 C  -10.932  -3.663  -0.749
  80 C   -0.268   3.663  15.553
  81 C   -0.297   1.905  -7.545
  82 C  -10.903  -1.905   8.757
  83 C   10.903   5.014   7.545
  84 C    0.297  -5.014  -8.757
  85 C    0.297  -1.905   7.545
  86 C   10.903   1.905  -8.757
  87 C  -10.903  -5.014  -7.545
  88 C   -0.297   5.014   8.757
  89 H   -4.165   3.170 -13.535
                               1321 S  
                                         1.874E+01 1.968E-02 0.000E+00 0.000E+00
                                         2.826E+00 1.380E-01 0.000E+00 0.000E+00
                                         6.401E-01 4.783E-01 0.000E+00 0.000E+00
                               1322 S  
                                         1.756E-01 1.000E+00 0.000E+00 0.000E+00
  90 H   -7.035  -3.170   2.767
  91 H    7.035   3.749  13.535
  92 H    4.165  -3.749  -2.767
  93 H    4.165  -3.170  13.535
  94 H    7.035   3.170  -2.767
  95 H   -7.035  -3.749 -13.535
  96 H   -4.165   3.749   2.767
  97 H    2.163   2.619  -3.586
  98 H    9.037  -2.619  12.716
  99 H   -9.037   4.300   3.586
 100 H   -2.163  -4.300 -12.716
 101 H   -2.163  -2.619   3.586
 102 H   -9.037   2.619 -12.716
 103 H    9.037  -4.300  -3.586
 104 H    2.163   4.300  12.716
 105 H   -4.485   4.904  -3.763
 106 H   -6.715  -4.904  12.539
 107 H    6.715   2.015   3.763
 108 H    4.485  -2.015 -12.539
 109 H    4.485  -4.904   3.763
 110 H    6.715   4.904 -12.539
 111 H   -6.715  -2.015  -3.763
 112 H   -4.485   2.015  12.539
 113 H   -6.812   5.106  -7.719
 114 H   -4.388  -5.106   8.583
 115 H    4.388   1.814   7.719
 116 H    6.812  -1.814  -8.583
 117 H    6.812  -5.106   7.719
 118 H    4.388   5.106  -8.583
 119 H   -4.388  -1.814  -7.719
 120 H   -6.812   1.814   8.583
 121 H    2.844   4.876   1.243
 122 H    8.356  -4.876 -15.059
 123 H   -8.356   2.043  -1.243
 124 H   -2.844  -2.043  15.059
 125 H   -2.844  -4.876  -1.243
 126 H   -8.356   4.876  15.059
 127 H    8.356  -2.043   1.243
 128 H    2.844   2.043 -15.059
 129 H    3.379   1.719   0.342
 130 H    7.821  -1.719 -15.960
 131 H   -7.821   5.200  -0.342
 132 H   -3.379  -5.200  15.960
 133 H   -3.379  -1.719  -0.342
 134 H   -7.821   1.719  15.960
 135 H    7.821  -5.200   0.342
 136 H    3.379   5.200 -15.960
 137 H    1.319   2.407   2.876
 138 H    9.881  -2.407 -13.426
 139 H   -9.881   4.512  -2.876
 140 H   -1.319  -4.512  13.426
 141 H   -1.319  -2.407  -2.876
 142 H   -9.881   2.407  13.426
 143 H    9.881  -4.512   2.876
 144 H    1.319   4.512 -13.426
 145 H   -0.832   1.137 -11.457
 146 H  -10.368  -1.137   4.845
 147 H   10.368   5.783  11.457
 148 H    0.832  -5.783  -4.845
 149 H    0.832  -1.137  11.457
 150 H   10.368   1.137  -4.845
 151 H  -10.368  -5.783 -11.457
 152 H   -0.832   5.783   4.845
 153 H    1.526   0.973  -7.530
 154 H    9.673  -0.973   8.772
 155 H   -9.673   5.946   7.530
 156 H   -1.526  -5.946  -8.772
 157 H   -1.526  -0.973   7.530
 158 H   -9.673   0.973  -8.772
 159 H    9.673  -5.946  -7.530
 160 H    1.526   5.946   8.772

 *******************************************************************************
 FINISHED BASIS SET HANDLING 
 *******************************************************************************

 INFORMATION **** SET_MPP **** PCRYSTAL CALCULATION
 INFORMATION **** READM2 **** NEW DEFAULT: FOCK/KS MATRIX MIXING SET TO 30 %
 INFORMATION **** READM2 **** NEW DEFAULT: FULL DIRECT SCF MODE
 INFORMATION **** READM2 **** NEW DEFAULT: COULOMB BIPOLAR BUFFER SET TO 32 Mb
 INFORMATION **** READM2 **** NEW DEFAULT: EXCHANGE BIPOLAR BUFFER SET TO 32 Mb

 *******************************************************************************
 NEW DEFAULT: DFT INTEGRATION GRID INCREASED TO XLGRID
 NEW DEFAULT: DIIS ACCELERATOR ACTIVE
 USE KEYWORD NODIIS TO TURN IT OFF
 *******************************************************************************

 INFORMATION **** RDDFTP **** PBEh-3c calculation
 INFORMATION **** RDDFTP **** PBEh hybrid functional combined with D3 and gCP

PLEASE CITE:
(1) PBEh-3c Reference
 S. Grimme, J. G. Brandenburg, C. Bannwarth, and A. Hansen, 
 J. Chem. Phys. 143, 054107 (2015)
(2) DFT-D3 Reference
 S. Grimme, J. Antony, S. Ehrlich, and H. Krieg, J. Chem. Phys. 132, 154104 (2010)
(3) gCP Reference
 H. Kruse and S. Grimme J. Chem. Phys, 136, 154101 (2012)
 J. G. Brandenburg, M. Alessio, B. Civalleri, M. F. Peintinger
 T. Bredow, and S. Grimme, J. Phys. Chem. A, 117, 9282 (2013) 

 WARNING **** RDDFTP **** PBEh-3c has to be combined with def2-mSVP basis set
 WARNING **** RDDFTP **** Note: Harmonic frequencies are scaled by 0.95
 WARNING **** RDDFTP **** as recommended in original publication
 INFORMATION **** TOLDEE **** SCF TOL ON TOTAL ENERGY SET TO           9
 INFORMATION **** TOLINTEG **** COULOMB AND EXCHANGE SERIES TOLERANCES MODIFIED
 INFORMATION **** MAXCYCLE **** MAX NUMBER OF SCF CYCLES SET TO          30
 WARNING **** READM2 **** PROBABLE LOSS IN FREQCALC ACCURACY; SCF TOL LT          10
 *******************************************************************************
 N. OF ATOMS PER CELL       160  COULOMB OVERLAP TOL         (T1) 10**   -8
 NUMBER OF SHELLS           760  COULOMB PENETRATION TOL     (T2) 10**   -8
 NUMBER OF AO              1464  EXCHANGE OVERLAP TOL        (T3) 10**   -8
 N. OF ELECTRONS PER CELL   640  EXCHANGE PSEUDO OVP (F(G))  (T4) 10**   -8
 CORE ELECTRONS PER CELL    176  EXCHANGE PSEUDO OVP (P(G))  (T5) 10**  -24
 N. OF SYMMETRY OPERATORS     8  POLE ORDER IN MONO ZONE                  4
 *******************************************************************************
 TYPE OF CALCULATION :  RESTRICTED CLOSED SHELL
 KOHN-SHAM HAMILTONIAN

 (EXCHANGE)[CORRELATION] FUNCTIONAL:(PBEh-3c)[PBEh-3c]


 HYBRID EXCHANGE - PERCENTAGE OF FOCK EXCHANGE    42.0000

 CAPPA:IS1  4;IS2  4;IS3  2; K PTS MONK NET  18; SYMMOPS:K SPACE   8;G SPACE   8

 *******************************************************************************
 MAX NUMBER OF SCF CYCLES      30  CONVERGENCE ON DELTAP        10**-19
 WEIGHT OF F(I) IN F(I+1)      50% CONVERGENCE ON ENERGY        10**- 9
 SHRINK. FACT.(MONKH.)    4  4  2  NUMBER OF K POINTS IN THE IBZ     18
 SHRINKING FACTOR(GILAT NET)    4  NUMBER OF K POINTS(GILAT NET)     18
 *******************************************************************************
 *** K POINTS COORDINATES (OBLIQUE COORDINATES IN UNITS OF IS =  4)
   1-R(  0  0  0)   2-C(  1  0  0)   3-R(  2  0  0)   4-C(  0  1  0)
   5-C(  1  1  0)   6-C(  2  1  0)   7-R(  0  2  0)   8-C(  1  2  0)
   9-R(  2  2  0)  10-R(  0  0  1)  11-C(  1  0  1)  12-R(  2  0  1)
  13-C(  0  1  1)  14-C(  1  1  1)  15-C(  2  1  1)  16-R(  0  2  1)
  17-C(  1  2  1)  18-R(  2  2  1)

 DIRECT LATTICE VECTORS COMPON. (A.U.)     RECIP. LATTICE VECTORS COMPON. (A.U.) 
        X            Y            Z              X            Y            Z
   22.3996819    0.0000000    0.0000000      0.2805033    0.0000000    0.0000000
    0.0000000   13.8383599    0.0000000      0.0000000    0.4540412    0.0000000
    0.0000000    0.0000000   32.6044064      0.0000000    0.0000000    0.1927097

 DISK SPACE FOR EIGENVECTORS (FTN 10)    60012288 REALS

 SYMMETRY ADAPTION OF THE BLOCH FUNCTIONS ENABLED
 TTTTTTTTTTTTTTTTTTTTTTTTTTTTTT gordsh1     TELAPSE        4.48 TCPU        1.93

 MATRIX SIZE: P(G) 4599392, F(G)  431348, P(G) IRR  291969, F(G) IRR   54635
 MAX G-VECTOR INDEX FOR 1- AND 2-ELECTRON INTEGRALS  75

 TTTTTTTTTTTTTTTTTTTTTTTTTTTTTT INPUT       TELAPSE        4.67 TCPU        2.11

 NEIGHBORS OF THE NON-EQUIVALENT ATOMS

 N = NUMBER OF NEIGHBORS AT DISTANCE R
    ATOM  N     R/ANG      R/AU   NEIGHBORS (ATOM LABELS AND CELL INDICES)
   1 O    1     0.9814     1.8546   89 H    0 0 0
   1 O    1     1.3490     2.5492   25 C    0 0 0
   1 O    1     2.0587     3.8903  102 H    0 0 0
   1 O    1     2.3650     4.4693   49 C    0 0 0
   1 O    1     2.3974     4.5305   65 C    0 0 0
   1 O    1     2.6023     4.9176  113 H    0 0 0

   9 O    1     1.2311     2.3264   73 C    0 0 0
   9 O    1     1.7373     3.2830   96 H    0 0 0
   9 O    1     2.2653     4.2808   17 N    0 0 0
   9 O    1     2.3474     4.4360  105 H    0 0 0
   9 O    1     2.4027     4.5404   57 C    0 0 0
   9 O    1     2.5975     4.9086  137 H    0 0 0

  17 N    1     1.0150     1.9182   97 H    0 0 0
  17 N    1     1.3428     2.5375   73 C    0 0 0
  17 N    1     1.4084     2.6615   33 C    0 0 0
  17 N    1     2.2653     4.2808    9 O    0 0 0
  17 N    1     2.3818     4.5010   81 C    0 0 0
  17 N    1     2.3961     4.5280   57 C    0 0 0

  25 C    1     1.3490     2.5492    1 O    0 0 0
  25 C    1     1.3906     2.6279   49 C    0 0 0
  25 C    1     1.3918     2.6301   65 C    0 0 0
  25 C    1     1.9274     3.6423   89 H    0 0 0
  25 C    1     2.1462     4.0557  113 H    0 0 0
  25 C    1     2.1523     4.0673  145 H    0 0 0

  33 C    1     1.3929     2.6321   81 C    0 0 0
  33 C    1     1.3932     2.6327   41 C    0 0 0
  33 C    1     1.4084     2.6615   17 N    0 0 0
  33 C    1     2.0473     3.8689   97 H    0 0 0
  33 C    1     2.1539     4.0702  153 H    0 0 0
  33 C    1     2.1561     4.0745  105 H    0 0 0

  41 C    1     1.0775     2.0361  105 H    0 0 0
  41 C    1     1.3880     2.6229   49 C    0 0 0
  41 C    1     1.3932     2.6327   33 C    0 0 0
  41 C    1     2.1366     4.0376  113 H    0 0 0
  41 C    1     2.3936     4.5232   81 C    0 0 0
  41 C    1     2.4171     4.5677   25 C    0 0 0

  49 C    1     1.0827     2.0460  113 H    0 0 0
  49 C    1     1.3880     2.6229   41 C    0 0 0
  49 C    1     1.3906     2.6279   25 C    0 0 0
  49 C    1     2.1254     4.0164  105 H    0 0 0
  49 C    1     2.3650     4.4693    1 O    0 0 0
  49 C    1     2.3926     4.5214   65 C    0 0 0

  57 C    1     1.0872     2.0544  137 H    0 0 0
  57 C    1     1.0881     2.0562  129 H    0 0 0
  57 C    1     1.0916     2.0629  121 H    0 0 0
  57 C    1     1.5067     2.8472   73 C    0 0 0
  57 C    1     2.3961     4.5280   17 N    0 0 0
  57 C    1     2.4027     4.5404    9 O    0 0 0

  65 C    1     1.0815     2.0438  145 H    0 0 0
  65 C    1     1.3819     2.6113   81 C    0 0 0
  65 C    1     1.3918     2.6301   25 C    0 0 0
  65 C    1     2.1253     4.0162  153 H    0 0 0
  65 C    1     2.3926     4.5214   49 C    0 0 0
  65 C    1     2.3974     4.5305    1 O    0 0 0

  73 C    1     1.2311     2.3264    9 O    0 0 0
  73 C    1     1.3428     2.5375   17 N    0 0 0
  73 C    1     1.5067     2.8472   57 C    0 0 0
  73 C    1     2.0055     3.7898   97 H    0 0 0
  73 C    1     2.1352     4.0350  121 H    0 0 0
  73 C    1     2.1417     4.0473  137 H    0 0 0

  81 C    1     1.0837     2.0480  153 H    0 0 0
  81 C    1     1.3819     2.6113   65 C    0 0 0
  81 C    1     1.3929     2.6321   33 C    0 0 0
  81 C    1     2.1286     4.0224  145 H    0 0 0
  81 C    1     2.3818     4.5010   17 N    0 0 0
  81 C    1     2.3936     4.5232   41 C    0 0 0

  89 H    1     0.9814     1.8546    1 O    0 0 0
  89 H    1     1.7373     3.2830   16 O    0 0 0
  89 H    1     1.9274     3.6423   25 C    0 0 0
  89 H    1     2.3408     4.4234  145 H    0 0 0
  89 H    1     2.4712     4.6699   65 C    0 0 0
  89 H    1     2.6303     4.9706  102 H    0 0 0

  97 H    1     1.0150     1.9182   17 N    0 0 0
  97 H    1     2.0055     3.7898   73 C    0 0 0
  97 H    1     2.0473     3.8689   33 C    0 0 0
  97 H    1     2.0587     3.8903    6 O    0 0 0
  97 H    1     2.2274     4.2091  129 H    0 0 0
  97 H    1     2.2863     4.3205  153 H    0 0 0

 105 H    1     1.0775     2.0361   41 C    0 0 0
 105 H    1     2.1254     4.0164   49 C    0 0 0
 105 H    1     2.1561     4.0745   33 C    0 0 0
 105 H    1     2.3474     4.4360    9 O    0 0 0
 105 H    1     2.4313     4.5945  113 H    0 0 0
 105 H    1     2.5331     4.7869  131 H    0 0 0

 113 H    1     1.0827     2.0460   49 C    0 0 0
 113 H    1     2.1366     4.0376   41 C    0 0 0
 113 H    1     2.1462     4.0557   25 C    0 0 0
 113 H    1     2.4313     4.5945  105 H    0 0 0
 113 H    1     2.6023     4.9176    1 O    0 0 0
 113 H    1     2.7176     5.1356  158 H    0 0 0

 121 H    1     1.0916     2.0629   57 C    0 0 0
 121 H    1     1.7602     3.3262  129 H    0 0 0
 121 H    1     1.7622     3.3300  137 H    0 0 0
 121 H    1     2.1352     4.0350   73 C    0 0 0
 121 H    1     2.6726     5.0505  109 H    0 1 0
 121 H    1     2.7652     5.2255  152 H    0 0 0

 129 H    1     1.0881     2.0562   57 C    0 0 0
 129 H    1     1.7602     3.3262  121 H    0 0 0
 129 H    1     1.7661     3.3375  137 H    0 0 0
 129 H    1     2.1725     4.1054   73 C    0 0 0
 129 H    1     2.2274     4.2091   97 H    0 0 0
 129 H    1     2.5331     4.7869  107 H    0 0 0

 137 H    1     1.0872     2.0544   57 C    0 0 0
 137 H    1     1.7622     3.3300  121 H    0 0 0
 137 H    1     1.7661     3.3375  129 H    0 0 0
 137 H    1     2.1417     4.0473   73 C    0 0 0
 137 H    1     2.3603     4.4604  152 H    0 0 0
[...]
Note: The following floating-point exceptions are signalling: IEEE_UNDERFLOW_FLAG IEEE_DENORMAL
Note: The following floating-point exceptions are signalling: IEEE_UNDERFLOW_FLAG IEEE_DENORMAL
Note: The following floating-point exceptions are signalling: IEEE_UNDERFLOW_FLAG IEEE_DENORMAL
Note: The following floating-point exceptions are signalling: IEEE_UNDERFLOW_FLAG IEEE_DENORMAL
Note: The following floating-point exceptions are signalling: IEEE_UNDERFLOW_FLAG IEEE_DENORMAL
Note: The following floating-point exceptions are signalling: IEEE_UNDERFLOW_FLAG IEEE_DENORMAL
Note: The following floating-point exceptions are signalling: IEEE_UNDERFLOW_FLAG IEEE_DENORMAL
Note: The following floating-point exceptions are signalling: IEEE_UNDERFLOW_FLAG IEEE_DENORMAL
Note: The following floating-point exceptions are signalling: IEEE_UNDERFLOW_FLAG IEEE_DENORMAL
Note: The following floating-point exceptions are signalling: IEEE_UNDERFLOW_FLAG IEEE_DENORMAL
Note: The following floating-point exceptions are signalling: IEEE_UNDERFLOW_FLAG IEEE_DENORMAL
Note: The following floating-point exceptions are signalling: IEEE_UNDERFLOW_FLAG IEEE_DENORMAL
Note: The following floating-point exceptions are signalling: IEEE_UNDERFLOW_FLAG IEEE_DENORMAL
Note: The following floating-point exceptions are signalling: IEEE_UNDERFLOW_FLAG IEEE_DENORMAL
Note: The following floating-point exceptions are signalling: IEEE_UNDERFLOW_FLAG IEEE_DENORMAL
Note: The following floating-point exceptions are signalling: IEEE_UNDERFLOW_FLAG IEEE_DENORMAL
Note: The following floating-point exceptions are signalling: IEEE_UNDERFLOW_FLAG IEEE_DENORMAL
Note: The following floating-point exceptions are signalling: IEEE_UNDERFLOW_FLAG IEEE_DENORMAL
Note: The following floating-point exceptions are signalling: IEEE_UNDERFLOW_FLAG IEEE_DENORMAL
Note: The following floating-point exceptions are signalling: IEEE_UNDERFLOW_FLAG IEEE_DENORMAL
Note: The following floating-point exceptions are signalling: IEEE_UNDERFLOW_FLAG IEEE_DENORMAL
Note: The following floating-point exceptions are signalling: IEEE_UNDERFLOW_FLAG IEEE_DENORMAL
Note: The following floating-point exceptions are signalling: IEEE_UNDERFLOW_FLAG IEEE_DENORMAL
Note: The following floating-point exceptions are signalling: IEEE_UNDERFLOW_FLAG IEEE_DENORMAL
Note: The following floating-point exceptions are signalling: IEEE_UNDERFLOW_FLAG IEEE_DENORMAL
Note: The following floating-point exceptions are signalling: IEEE_UNDERFLOW_FLAG IEEE_DENORMAL
Note: The following floating-point exceptions are signalling: IEEE_UNDERFLOW_FLAG IEEE_DENORMAL
Note: The following floating-point exceptions are signalling: IEEE_UNDERFLOW_FLAG IEEE_DENORMAL
Note: The following floating-point exceptions are signalling: IEEE_UNDERFLOW_FLAG IEEE_DENORMAL
Note: The following floating-point exceptions are signalling: IEEE_UNDERFLOW_FLAG IEEE_DENORMAL
Note: The following floating-point exceptions are signalling: IEEE_UNDERFLOW_FLAG IEEE_DENORMAL
Note: The following floating-point exceptions are signalling: IEEE_UNDERFLOW_FLAG IEEE_DENORMAL
Note: The following floating-point exceptions are signalling: IEEE_UNDERFLOW_FLAG IEEE_DENORMAL
Note: The following floating-point exceptions are signalling: IEEE_UNDERFLOW_FLAG IEEE_DENORMAL
Note: The following floating-point exceptions are signalling: IEEE_UNDERFLOW_FLAG IEEE_DENORMAL
Note: The following floating-point exceptions are signalling: IEEE_UNDERFLOW_FLAG IEEE_DENORMAL
Note: The following floating-point exceptions are signalling: IEEE_UNDERFLOW_FLAG IEEE_DENORMAL
Note: The following floating-point exceptions are signalling: IEEE_UNDERFLOW_FLAG IEEE_DENORMAL
Note: The following floating-point exceptions are signalling: IEEE_UNDERFLOW_FLAG IEEE_DENORMAL
Note: The following floating-point exceptions are signalling: IEEE_UNDERFLOW_FLAG IEEE_DENORMAL
Note: The following floating-point exceptions are signalling: IEEE_UNDERFLOW_FLAG IEEE_DENORMAL
Note: The following floating-point exceptions are signalling: IEEE_UNDERFLOW_FLAG IEEE_DENORMAL
Note: The following floating-point exceptions are signalling: IEEE_UNDERFLOW_FLAG IEEE_DENORMAL
Note: The following floating-point exceptions are signalling: IEEE_UNDERFLOW_FLAG IEEE_DENORMAL
Note: The following floating-point exceptions are signalling: IEEE_UNDERFLOW_FLAG IEEE_DENORMAL
Note: The following floating-point exceptions are signalling: IEEE_UNDERFLOW_FLAG IEEE_DENORMAL
Note: The following floating-point exceptions are signalling: IEEE_UNDERFLOW_FLAG IEEE_DENORMAL
Note: The following floating-point exceptions are signalling: IEEE_UNDERFLOW_FLAG IEEE_DENORMAL
Note: The following floating-point exceptions are signalling: IEEE_UNDERFLOW_FLAG IEEE_DENORMAL
Note: The following floating-point exceptions are signalling: IEEE_UNDERFLOW_FLAG IEEE_DENORMAL
Note: The following floating-point exceptions are signalling: IEEE_UNDERFLOW_FLAG IEEE_DENORMAL
Note: The following floating-point exceptions are signalling: IEEE_UNDERFLOW_FLAG IEEE_DENORMAL
Note: The following floating-point exceptions are signalling: IEEE_UNDERFLOW_FLAG IEEE_DENORMAL
Note: The following floating-point exceptions are signalling: IEEE_UNDERFLOW_FLAG IEEE_DENORMAL
Note: The following floating-point exceptions are signalling: IEEE_UNDERFLOW_FLAG IEEE_DENORMAL
Note: The following floating-point exceptions are signalling: IEEE_UNDERFLOW_FLAG IEEE_DENORMAL
Note: The following floating-point exceptions are signalling: IEEE_UNDERFLOW_FLAG IEEE_DENORMAL
Note: The following floating-point exceptions are signalling: IEEE_UNDERFLOW_FLAG IEEE_DENORMAL
Note: The following floating-point exceptions are signalling: IEEE_UNDERFLOW_FLAG IEEE_DENORMAL
Note: The following floating-point exceptions are signalling: IEEE_UNDERFLOW_FLAG IEEE_DENORMAL
Note: The following floating-point exceptions are signalling: IEEE_UNDERFLOW_FLAG IEEE_DENORMAL
Note: The following floating-point exceptions are signalling: IEEE_UNDERFLOW_FLAG IEEE_DENORMAL
Note: The following floating-point exceptions are signalling: IEEE_UNDERFLOW_FLAG IEEE_DENORMAL
Note: The following floating-point exceptions are signalling: IEEE_UNDERFLOW_FLAG IEEE_DENORMAL
Note: The following floating-point exceptions are signalling: IEEE_UNDERFLOW_FLAG IEEE_DENORMAL
Note: The following floating-point exceptions are signalling: IEEE_UNDERFLOW_FLAG IEEE_DENORMAL
Note: The following floating-point exceptions are signalling: IEEE_UNDERFLOW_FLAG IEEE_DENORMAL
Note: The following floating-point exceptions are signalling: IEEE_UNDERFLOW_FLAG IEEE_DENORMAL
Note: The following floating-point exceptions are signalling: IEEE_UNDERFLOW_FLAG IEEE_DENORMAL
Note: The following floating-point exceptions are signalling: IEEE_UNDERFLOW_FLAG IEEE_DENORMAL
Note: The following floating-point exceptions are signalling: IEEE_UNDERFLOW_FLAG IEEE_DENORMAL
Note: The following floating-point exceptions are signalling: IEEE_UNDERFLOW_FLAG IEEE_DENORMAL
Note: The following floating-point exceptions are signalling: IEEE_UNDERFLOW_FLAG IEEE_DENORMAL
Note: The following floating-point exceptions are signalling: IEEE_UNDERFLOW_FLAG IEEE_DENORMAL
Note: The following floating-point exceptions are signalling: IEEE_UNDERFLOW_FLAG IEEE_DENORMAL
Note: The following floating-point exceptions are signalling: IEEE_UNDERFLOW_FLAG IEEE_DENORMAL
Note: The following floating-point exceptions are signalling: IEEE_UNDERFLOW_FLAG IEEE_DENORMAL
Note: The following floating-point exceptions are signalling: IEEE_UNDERFLOW_FLAG IEEE_DENORMAL
Note: The following floating-point exceptions are signalling: IEEE_UNDERFLOW_FLAG IEEE_DENORMAL
Note: The following floating-point exceptions are signalling: IEEE_UNDERFLOW_FLAG IEEE_DENORMAL
Note: The following floating-point exceptions are signalling: IEEE_UNDERFLOW_FLAG IEEE_DENORMAL
Note: The following floating-point exceptions are signalling: IEEE_UNDERFLOW_FLAG IEEE_DENORMAL
Note: The following floating-point exceptions are signalling: IEEE_UNDERFLOW_FLAG IEEE_DENORMAL
Note: The following floating-point exceptions are signalling: IEEE_UNDERFLOW_FLAG IEEE_DENORMAL
Note: The following floating-point exceptions are signalling: IEEE_UNDERFLOW_FLAG IEEE_DENORMAL
Note: The following floating-point exceptions are signalling: IEEE_UNDERFLOW_FLAG IEEE_DENORMAL
Note: The following floating-point exceptions are signalling: IEEE_UNDERFLOW_FLAG IEEE_DENORMAL
Note: The following floating-point exceptions are signalling: IEEE_UNDERFLOW_FLAG IEEE_DENORMAL
Note: The following floating-point exceptions are signalling: IEEE_UNDERFLOW_FLAG IEEE_DENORMAL
Note: The following floating-point exceptions are signalling: IEEE_UNDERFLOW_FLAG IEEE_DENORMAL
Note: The following floating-point exceptions are signalling: IEEE_UNDERFLOW_FLAG IEEE_DENORMAL
Note: The following floating-point exceptions are signalling: IEEE_UNDERFLOW_FLAG IEEE_DENORMAL
Note: The following floating-point exceptions are signalling: IEEE_UNDERFLOW_FLAG IEEE_DENORMAL
Note: The following floating-point exceptions are signalling: IEEE_UNDERFLOW_FLAG IEEE_DENORMAL
Note: The following floating-point exceptions are signalling: IEEE_UNDERFLOW_FLAG IEEE_DENORMAL
Note: The following floating-point exceptions are signalling: IEEE_UNDERFLOW_FLAG IEEE_DENORMAL
Note: The following floating-point exceptions are signalling: IEEE_UNDERFLOW_FLAG IEEE_DENORMAL
Note: The following floating-point exceptions are signalling: IEEE_UNDERFLOW_FLAG IEEE_DENORMAL
Note: The following floating-point exceptions are signalling: IEEE_UNDERFLOW_FLAG IEEE_DENORMAL
Note: The following floating-point exceptions are signalling: IEEE_UNDERFLOW_FLAG IEEE_DENORMAL
Note: The following floating-point exceptions are signalling: IEEE_UNDERFLOW_FLAG IEEE_DENORMAL
Note: The following floating-point exceptions are signalling: IEEE_UNDERFLOW_FLAG IEEE_DENORMAL
Note: The following floating-point exceptions are signalling: IEEE_UNDERFLOW_FLAG IEEE_DENORMAL
Note: The following floating-point exceptions are signalling: IEEE_UNDERFLOW_FLAG IEEE_DENORMAL
Note: The following floating-point exceptions are signalling: IEEE_UNDERFLOW_FLAG IEEE_DENORMAL
Note: The following floating-point exceptions are signalling: IEEE_UNDERFLOW_FLAG IEEE_DENORMAL
Note: The following floating-point exceptions are signalling: IEEE_UNDERFLOW_FLAG IEEE_DENORMAL
Note: The following floating-point exceptions are signalling: IEEE_UNDERFLOW_FLAG IEEE_DENORMAL
Note: The following floating-point exceptions are signalling: IEEE_UNDERFLOW_FLAG IEEE_DENORMAL
Note: The following floating-point exceptions are signalling: IEEE_UNDERFLOW_FLAG IEEE_DENORMAL
Note: The following floating-point exceptions are signalling: IEEE_UNDERFLOW_FLAG IEEE_DENORMAL
Note: The following floating-point exceptions are signalling: IEEE_UNDERFLOW_FLAG IEEE_DENORMAL
Note: The following floating-point exceptions are signalling: IEEE_UNDERFLOW_FLAG IEEE_DENORMAL
Note: The following floating-point exceptions are signalling: IEEE_UNDERFLOW_FLAG IEEE_DENORMAL
Note: The following floating-point exceptions are signalling: IEEE_UNDERFLOW_FLAG IEEE_DENORMAL
Note: The following floating-point exceptions are signalling: IEEE_UNDERFLOW_FLAG IEEE_DENORMAL
Note: The following floating-point exceptions are signalling: IEEE_UNDERFLOW_FLAG IEEE_DENORMAL
Note: The following floating-point exceptions are signalling: IEEE_UNDERFLOW_FLAG IEEE_DENORMAL
Note: The following floating-point exceptions are signalling: IEEE_UNDERFLOW_FLAG IEEE_DENORMAL
Note: The following floating-point exceptions are signalling: IEEE_UNDERFLOW_FLAG IEEE_DENORMAL
Note: The following floating-point exceptions are signalling: IEEE_UNDERFLOW_FLAG IEEE_DENORMAL
Note: The following floating-point exceptions are signalling: IEEE_UNDERFLOW_FLAG IEEE_DENORMAL
Note: The following floating-point exceptions are signalling: IEEE_UNDERFLOW_FLAG IEEE_DENORMAL
Note: The following floating-point exceptions are signalling: IEEE_UNDERFLOW_FLAG IEEE_DENORMAL
Note: The following floating-point exceptions are signalling: IEEE_UNDERFLOW_FLAG IEEE_DENORMAL
Note: The following floating-point exceptions are signalling: IEEE_UNDERFLOW_FLAG IEEE_DENORMAL
Note: The following floating-point exceptions are signalling: IEEE_UNDERFLOW_FLAG IEEE_DENORMAL
Note: The following floating-point exceptions are signalling: IEEE_UNDERFLOW_FLAG IEEE_DENORMAL
Note: The following floating-point exceptions are signalling: IEEE_UNDERFLOW_FLAG IEEE_DENORMAL
Note: The following floating-point exceptions are signalling: IEEE_UNDERFLOW_FLAG IEEE_DENORMAL
Note: The following floating-point exceptions are signalling: IEEE_UNDERFLOW_FLAG IEEE_DENORMAL
Note: The following floating-point exceptions are signalling: IEEE_UNDERFLOW_FLAG IEEE_DENORMAL
Note: The following floating-point exceptions are signalling: IEEE_UNDERFLOW_FLAG IEEE_DENORMAL
Note: The following floating-point exceptions are signalling: IEEE_UNDERFLOW_FLAG IEEE_DENORMAL
Note: The following floating-point exceptions are signalling: IEEE_UNDERFLOW_FLAG IEEE_DENORMAL
Note: The following floating-point exceptions are signalling: IEEE_UNDERFLOW_FLAG IEEE_DENORMAL
Note: The following floating-point exceptions are signalling: IEEE_UNDERFLOW_FLAG IEEE_DENORMAL
Note: The following floating-point exceptions are signalling: IEEE_UNDERFLOW_FLAG IEEE_DENORMAL
Note: The following floating-point exceptions are signalling: IEEE_UNDERFLOW_FLAG IEEE_DENORMAL
Note: The following floating-point exceptions are signalling: IEEE_UNDERFLOW_FLAG IEEE_DENORMAL
Note: The following floating-point exceptions are signalling: IEEE_UNDERFLOW_FLAG IEEE_DENORMAL
Note: The following floating-point exceptions are signalling: IEEE_UNDERFLOW_FLAG IEEE_DENORMAL
Note: The following floating-point exceptions are signalling: IEEE_UNDERFLOW_FLAG IEEE_DENORMAL
Note: The following floating-point exceptions are signalling: IEEE_UNDERFLOW_FLAG IEEE_DENORMAL
Note: The following floating-point exceptions are signalling: IEEE_UNDERFLOW_FLAG IEEE_DENORMAL
Note: The following floating-point exceptions are signalling: IEEE_UNDERFLOW_FLAG IEEE_DENORMAL
Note: The following floating-point exceptions are signalling: IEEE_UNDERFLOW_FLAG IEEE_DENORMAL
Note: The following floating-point exceptions are signalling: IEEE_UNDERFLOW_FLAG IEEE_DENORMAL
Note: The following floating-point exceptions are signalling: IEEE_UNDERFLOW_FLAG IEEE_DENORMAL
Note: The following floating-point exceptions are signalling: IEEE_UNDERFLOW_FLAG IEEE_DENORMAL
Note: The following floating-point exceptions are signalling: IEEE_UNDERFLOW_FLAG IEEE_DENORMAL
Note: The following floating-point exceptions are signalling: IEEE_UNDERFLOW_FLAG IEEE_DENORMAL
Note: The following floating-point exceptions are signalling: IEEE_UNDERFLOW_FLAG IEEE_DENORMAL
Note: The following floating-point exceptions are signalling: IEEE_UNDERFLOW_FLAG IEEE_DENORMAL
Note: The following floating-point exceptions are signalling: IEEE_UNDERFLOW_FLAG IEEE_DENORMAL
Note: The following floating-point exceptions are signalling: IEEE_UNDERFLOW_FLAG IEEE_DENORMAL
Note: The following floating-point exceptions are signalling: IEEE_UNDERFLOW_FLAG IEEE_DENORMAL
Note: The following floating-point exceptions are signalling: IEEE_UNDERFLOW_FLAG IEEE_DENORMAL
Note: The following floating-point exceptions are signalling: IEEE_UNDERFLOW_FLAG IEEE_DENORMAL
Note: The following floating-point exceptions are signalling: IEEE_UNDERFLOW_FLAG IEEE_DENORMAL
Note: The following floating-point exceptions are signalling: IEEE_UNDERFLOW_FLAG IEEE_DENORMAL
Note: The following floating-point exceptions are signalling: IEEE_UNDERFLOW_FLAG IEEE_DENORMAL
Note: The following floating-point exceptions are signalling: IEEE_UNDERFLOW_FLAG IEEE_DENORMAL
Note: The following floating-point exceptions are signalling: IEEE_UNDERFLOW_FLAG IEEE_DENORMAL
Note: The following floating-point exceptions are signalling: IEEE_UNDERFLOW_FLAG IEEE_DENORMAL
Note: The following floating-point exceptions are signalling: IEEE_UNDERFLOW_FLAG IEEE_DENORMAL
Note: The following floating-point exceptions are signalling: IEEE_UNDERFLOW_FLAG IEEE_DENORMAL
Note: The following floating-point exceptions are signalling: IEEE_UNDERFLOW_FLAG IEEE_DENORMAL
Note: The following floating-point exceptions are signalling: IEEE_UNDERFLOW_FLAG IEEE_DENORMAL
Note: The following floating-point exceptions are signalling: IEEE_UNDERFLOW_FLAG IEEE_DENORMAL
Note: The following floating-point exceptions are signalling: IEEE_UNDERFLOW_FLAG IEEE_DENORMAL
Note: The following floating-point exceptions are signalling: IEEE_UNDERFLOW_FLAG IEEE_DENORMAL
Note: The following floating-point exceptions are signalling: IEEE_UNDERFLOW_FLAG IEEE_DENORMAL
Note: The following floating-point exceptions are signalling: IEEE_UNDERFLOW_FLAG IEEE_DENORMAL
Note: The following floating-point exceptions are signalling: IEEE_UNDERFLOW_FLAG IEEE_DENORMAL
Note: The following floating-point exceptions are signalling: IEEE_UNDERFLOW_FLAG IEEE_DENORMAL
Note: The following floating-point exceptions are signalling: IEEE_UNDERFLOW_FLAG IEEE_DENORMAL
Note: The following floating-point exceptions are signalling: IEEE_UNDERFLOW_FLAG IEEE_DENORMAL
Note: The following floating-point exceptions are signalling: IEEE_UNDERFLOW_FLAG IEEE_DENORMAL
Note: The following floating-point exceptions are signalling: IEEE_UNDERFLOW_FLAG IEEE_DENORMAL
Note: The following floating-point exceptions are signalling: IEEE_UNDERFLOW_FLAG IEEE_DENORMAL
Note: The following floating-point exceptions are signalling: IEEE_UNDERFLOW_FLAG IEEE_DENORMAL
Note: The following floating-point exceptions are signalling: IEEE_UNDERFLOW_FLAG IEEE_DENORMAL
Note: The following floating-point exceptions are signalling: IEEE_UNDERFLOW_FLAG IEEE_DENORMAL
Note: The following floating-point exceptions are signalling: IEEE_UNDERFLOW_FLAG IEEE_DENORMAL
Note: The following floating-point exceptions are signalling: IEEE_UNDERFLOW_FLAG IEEE_DENORMAL
Note: The following floating-point exceptions are signalling: IEEE_UNDERFLOW_FLAG IEEE_DENORMAL
Note: The following floating-point exceptions are signalling: IEEE_UNDERFLOW_FLAG IEEE_DENORMAL
Note: The following floating-point exceptions are signalling: IEEE_UNDERFLOW_FLAG IEEE_DENORMAL
Note: The following floating-point exceptions are signalling: IEEE_UNDERFLOW_FLAG IEEE_DENORMAL
Note: The following floating-point exceptions are signalling: IEEE_UNDERFLOW_FLAG IEEE_DENORMAL
Note: The following floating-point exceptions are signalling: IEEE_UNDERFLOW_FLAG IEEE_DENORMAL
Note: The following floating-point exceptions are signalling: IEEE_UNDERFLOW_FLAG IEEE_DENORMAL
Note: The following floating-point exceptions are signalling: IEEE_UNDERFLOW_FLAG IEEE_DENORMAL
Note: The following floating-point exceptions are signalling: IEEE_UNDERFLOW_FLAG IEEE_DENORMAL
Note: The following floating-point exceptions are signalling: IEEE_UNDERFLOW_FLAG IEEE_DENORMAL
Note: The following floating-point exceptions are signalling: IEEE_UNDERFLOW_FLAG IEEE_DENORMAL
Note: The following floating-point exceptions are signalling: IEEE_UNDERFLOW_FLAG IEEE_DENORMAL
Note: The following floating-point exceptions are signalling: IEEE_UNDERFLOW_FLAG IEEE_DENORMAL
Note: The following floating-point exceptions are signalling: IEEE_UNDERFLOW_FLAG IEEE_DENORMAL
Note: The following floating-point exceptions are signalling: IEEE_UNDERFLOW_FLAG IEEE_DENORMAL
Note: The following floating-point exceptions are signalling: IEEE_UNDERFLOW_FLAG IEEE_DENORMAL
Note: The following floating-point exceptions are signalling: IEEE_UNDERFLOW_FLAG IEEE_DENORMAL
Note: The following floating-point exceptions are signalling: IEEE_UNDERFLOW_FLAG IEEE_DENORMAL
Note: The following floating-point exceptions are signalling: IEEE_UNDERFLOW_FLAG IEEE_DENORMAL
Note: The following floating-point exceptions are signalling: IEEE_UNDERFLOW_FLAG IEEE_DENORMAL
Note: The following floating-point exceptions are signalling: IEEE_UNDERFLOW_FLAG IEEE_DENORMAL
Note: The following floating-point exceptions are signalling: IEEE_UNDERFLOW_FLAG IEEE_DENORMAL
