Lmod has detected the following error: The following module(s) are unknown:
"epcc-job-env"

Please check the spelling or version number. Also try "module spider ..."
It is also possible your cache file is out-of-date; it may help to try:
  $ module --ignore-cache load "epcc-job-env"

Also make sure that all modulefiles written in TCL start with the string
#%Module




Warning: You have enabled access to software packages installed
by external parties on ARCHER2 or those that are not fully-supported.
The ARCHER2 CSE service does not test these packages. The service desk
will make reasonable efforts to assist with questions on the use of
these packages but some issues may not be able to be resolved by the
service and they may direct you to seek help from external parties.


         512 PROCESSORS WORKING

         
 *******************************************************************************
 *                                                                             *
 *                               CRYSTAL17                                     *
 *                      public : 1.0.2 - March 1st, 2018 STFC/Archer2 build    *
 *                       HTTP://WWW.CRYSTAL.UNITO.IT                           *
 *                                                                             *
 *                              MAIN AUTHORS                                   *
 *                                                                             *
 *  R. DOVESI(1,11), V.R. SAUNDERS(2), C. ROETTI(1,11), R. ORLANDO(1,11),      *
 *  C.M. ZICOVICH-WILSON(1,3), F. PASCALE(4), B. CIVALLERI(1,11),              *
 *  K. DOLL(5), N.M. HARRISON(2,6), I.J. BUSH(7), Ph. D'ARCO(8),               *
 *  M. LLUNELL(9), M. CAUSA'(10), Y. NOEL(8), L. MASCHIO(1,11), A. ERBA(1,11)  *
 *  M. RE'RAT(14), S. CASASSA(1,11)                                            *
 *                                                                             *
 *        CONTRIBUTIONS TO THE CODE HAVE ALSO BEEN GIVEN BY                    *
 *                                                                             *
 *  M. FERRABONE(1,11), M. DE LA PIERRE(1,11), M. FERRERO(1,11),               *
 *  J. BAIMA(1,11), E. ALBANESE(1,11), M.F. PEINTINGER(12), R. BAST(13),       *
 *  B. KIRTMAN(15), V. LACIVITA(1,11), R. DEMICHELIS(1,16)                     *
 *  G. BRANDEBURG(17), S. SALUSTRO(1,11), G. SANSONE(1,11)                     *
 *  M.T. RUGGIERO(18)                                                          *
 *                                                                             *
 * (1) THEORETICAL CHEMISTRY GROUP - UNIVERSITA' DI TORINO - TORINO (ITALY)    *
 * (2) COMPUTATIONAL SCIENCE & ENGINEERING DEPARTMENT - STFC DARESBURY (UK)    *
 * (3) UNIVERSIDAD AUTONOMA DEL ESTADO DE MORELOS - CUERNAVACA (MEXICO)        *
 * (4) UNIVERSITE' DE LORRAINE - NANCY (FRANCE)                                *
 * (5) UNIVERSITAET STUTTGART- STUTTGART (GERMANY)                             *
 * (6) IMPERIAL COLLEGE - LONDON (UK)                                          *
 * (7) OXFORD E-RESEARCH CENTRE - OXFORD (UK)                                  *
 * (8) UPMC - SORBONNE UNIVERSITES - PARIS (FRANCE)                            *
 * (9) UNIVERSIDAD DE BARCELONA - BARCELONA (SPAIN)                            *
 *(10) UNIVERSITA' DI NAPOLI "FEDERICO II" - NAPOLI (ITALY)                    *
 *(11) NIS - NANOSTRUCTURED INTERFACES AND SURFACES - TORINO (ITALY)           *
 *(12) MPI FUER CHEMISCHE ENERGIEKONVERSION - MUELHEIM AN DER RUHR (GERMANY)   *
 *(13) UNIVERSITY OF TROMSO - TROMSO (NORWAY)                                  *
 *(14) UNIVERSITE' DE PAU ET DES PAYS DE L'ADOUR - PAU (FRANCE)                *
 *(15) UNIVERSITY OF CALIFORNIA SANTA BARBARA - SANTA BARBARA (USA)            *
 *(16) CURTIN UNIVERSITY - PERTH (AUSTRALIA)                                   *
 *(17) UNIVERSITY COLLEGE LONDON - LONDON (UK)                                 *
 *(18) CAMBRIDGE UNIVERSITY - CAMBRIDGE (UK)                                   *
 *                                                                             *
 *******************************************************************************
 EEEEEEEEEE STARTING  DATE 07 03 2022 TIME 09:34:12.8
 F2 vol stepp1 freq - PBEh-3c                                                    

 GEOMETRY INPUT FROM EXTERNAL FILE (FORTRAN UNIT 34)
 3D - CRYSTAL 

 *******************************************************************************
 LATTICE PARAMETERS  (ANGSTROMS AND DEGREES) - PRIMITIVE CELL
       A          B          C        ALPHA      BETA     GAMMA        VOLUME
   11.81541    7.22171   17.21116    90.00000  90.00000  90.00000   1468.585314

 NUMBER OF IRREDUCIBLE ATOMS IN THE CELL:   20

 CARTESIAN COORDINATES (ANGSTROM) - IRREDUCIBLE ATOMS AND SYMMETRY RELATED

 AT.IRR.  AT  AT.N.          X                   Y                   Z
     1     1     8   -2.791666251468E+00  1.781463538177E+00 -6.367891204708E+00
     1     2     8   -3.116038282209E+00 -1.781463538177E+00  2.237689754357E+00
     1     3     8    3.116038282209E+00  1.829392988951E+00  6.367891204708E+00
     1     4     8    2.791666251468E+00 -1.829392988951E+00 -2.237689754357E+00
     1     5     8    2.791666251468E+00 -1.781463538177E+00  6.367891204708E+00
     1     6     8    3.116038282209E+00  1.781463538177E+00 -2.237689754357E+00
     1     7     8   -3.116038282209E+00 -1.829392988951E+00 -6.367891204708E+00
     1     8     8   -2.791666251468E+00  1.829392988951E+00  2.237689754357E+00
     9     9     8   -1.258294124941E+00  1.974527253045E+00  1.413368589500E-02
     9    10     8   -4.649410408736E+00 -1.974527253045E+00 -8.591447273170E+00
     9    11     8    4.649410408736E+00  1.636329274084E+00 -1.413368589500E-02
     9    12     8    1.258294124941E+00 -1.636329274084E+00  8.591447273170E+00
     9    13     8    1.258294124941E+00 -1.974527253045E+00 -1.413368589500E-02
     9    14     8    4.649410408736E+00  1.974527253045E+00  8.591447273170E+00
     9    15     8   -4.649410408736E+00 -1.636329274084E+00  1.413368589500E-02
     9    16     8   -1.258294124941E+00  1.636329274084E+00 -8.591447273170E+00
    17    17     7    1.716124228610E-01  1.496741037558E+00 -1.675470763504E+00
    17    18     7    5.736092110816E+00 -1.496741037558E+00  6.930110195562E+00
    17    19     7   -5.736092110816E+00  2.114115489570E+00  1.675470763504E+00
    17    20     7   -1.716124228610E-01 -2.114115489570E+00 -6.930110195562E+00
    17    21     7   -1.716124228610E-01 -1.496741037558E+00  1.675470763504E+00
    17    22     7   -5.736092110816E+00  1.496741037558E+00 -6.930110195562E+00
    17    23     7    5.736092110816E+00 -2.114115489570E+00 -1.675470763504E+00
    17    24     7    1.716124228610E-01  2.114115489570E+00  6.930110195562E+00
    25    25     6   -2.097662086866E+00  1.668773810244E+00 -5.216749514955E+00
    25    26     6   -3.810042446810E+00 -1.668773810244E+00  3.388831444111E+00
    25    27     6    3.810042446810E+00  1.942082716885E+00  5.216749514955E+00
    25    28     6    2.097662086866E+00 -1.942082716885E+00 -3.388831444111E+00
    25    29     6    2.097662086866E+00 -1.668773810244E+00  5.216749514955E+00
    25    30     6    3.810042446810E+00  1.668773810244E+00 -3.388831444111E+00
    25    31     6   -3.810042446810E+00 -1.942082716885E+00 -5.216749514955E+00
    25    32     6   -2.097662086866E+00  1.942082716885E+00  3.388831444111E+00
    33    33     6   -6.649572312010E-01  1.535631974833E+00 -2.807225663400E+00
    33    34     6   -5.242747302475E+00 -1.535631974833E+00  5.798355295665E+00
    33    35     6    5.242747302475E+00  2.075224552296E+00  2.807225663400E+00
    33    36     6    6.649572312010E-01 -2.075224552296E+00 -5.798355295665E+00
    33    37     6    6.649572312010E-01 -1.535631974833E+00  2.807225663400E+00
    33    38     6    5.242747302475E+00  1.535631974833E+00 -5.798355295665E+00
    33    39     6   -5.242747302475E+00 -2.075224552296E+00 -2.807225663400E+00
    33    40     6   -6.649572312010E-01  2.075224552296E+00  5.798355295665E+00
    41    41     6   -1.931612326164E+00  2.113902654207E+00 -2.847419181864E+00
    41    42     6   -3.976092207513E+00 -2.113902654207E+00  5.758161777202E+00
    41    43     6    3.976092207513E+00  1.496953872921E+00  2.847419181864E+00
    41    44     6    1.931612326164E+00 -1.496953872921E+00 -5.758161777202E+00
    41    45     6    1.931612326164E+00 -2.113902654207E+00  2.847419181864E+00
    41    46     6    3.976092207513E+00  2.113902654207E+00 -5.758161777202E+00
    41    47     6   -3.976092207513E+00 -1.496953872921E+00 -2.847419181864E+00
    41    48     6   -1.931612326164E+00  1.496953872921E+00  5.758161777202E+00
    49    49     6   -2.637262708013E+00  2.177468645106E+00 -4.040746433335E+00
    49    50     6   -3.270441825664E+00 -2.177468645106E+00  4.564834525730E+00
    49    51     6    3.270441825664E+00  1.433387882023E+00  4.040746433335E+00
    49    52     6    2.637262708013E+00 -1.433387882023E+00 -4.564834525730E+00
    49    53     6    2.637262708013E+00 -2.177468645106E+00  4.040746433335E+00
    49    54     6    3.270441825664E+00  2.177468645106E+00 -4.564834525730E+00
    49    55     6   -3.270441825664E+00 -1.433387882023E+00 -4.040746433335E+00
    49    56     6   -2.637262708013E+00  1.433387882023E+00  4.564834525730E+00
    57    57     6    1.051588048234E+00  1.586049882820E+00  5.505592874980E-01
    57    58     6    4.856116485442E+00 -1.586049882820E+00 -8.055021671567E+00
    57    59     6   -4.856116485442E+00  2.024806644309E+00 -5.505592874980E-01
    57    60     6   -1.051588048234E+00 -2.024806644309E+00  8.055021671567E+00
    57    61     6   -1.051588048234E+00 -1.586049882820E+00 -5.505592874980E-01
    57    62     6   -4.856116485442E+00  1.586049882820E+00  8.055021671567E+00
    57    63     6    4.856116485442E+00 -2.024806644309E+00  5.505592874980E-01
    57    64     6    1.051588048234E+00  2.024806644309E+00 -8.055021671567E+00
    65    65     6   -8.535254390870E-01  1.047787929120E+00 -5.165392631822E+00
    65    66     6   -5.054179094590E+00 -1.047787929120E+00  3.440188327243E+00
    65    67     6    5.054179094590E+00  2.563068598009E+00  5.165392631822E+00
    65    68     6    8.535254390870E-01 -2.563068598009E+00 -3.440188327243E+00
    65    69     6    8.535254390870E-01 -1.047787929120E+00  5.165392631822E+00
    65    70     6    5.054179094590E+00  1.047787929120E+00 -3.440188327243E+00
    65    71     6   -5.054179094590E+00 -2.563068598009E+00 -5.165392631822E+00
    65    72     6   -8.535254390870E-01  2.563068598009E+00  3.440188327243E+00
    73    73     6   -1.257758021650E-01  1.697546360910E+00 -3.822128767640E-01
    73    74     6   -5.781928731512E+00 -1.697546360910E+00  8.223368082301E+00
    73    75     6    5.781928731512E+00  1.913310166219E+00  3.822128767640E-01
    73    76     6    1.257758021650E-01 -1.913310166219E+00 -8.223368082301E+00
    73    77     6    1.257758021650E-01 -1.697546360910E+00  3.822128767640E-01
    73    78     6    5.781928731512E+00  1.697546360910E+00 -8.223368082301E+00
    73    79     6   -5.781928731512E+00 -1.913310166219E+00 -3.822128767640E-01
    73    80     6   -1.257758021650E-01  1.913310166219E+00  8.223368082301E+00
    81    81     6   -1.487643556320E-01  9.875755714360E-01 -3.978813496584E+00
    81    82     6   -5.758940178045E+00 -9.875755714360E-01  4.626767462481E+00
    81    83     6    5.758940178045E+00  2.623280955692E+00  3.978813496584E+00
    81    84     6    1.487643556320E-01 -2.623280955692E+00 -4.626767462481E+00
    81    85     6    1.487643556320E-01 -9.875755714360E-01  3.978813496584E+00
    81    86     6    5.758940178045E+00  9.875755714360E-01 -4.626767462481E+00
    81    87     6   -5.758940178045E+00 -2.623280955692E+00 -3.978813496584E+00
    81    88     6   -1.487643556320E-01  2.623280955692E+00  4.626767462481E+00
    89    89     1   -2.197954069859E+00  1.657951452546E+00 -7.139826142618E+00
    89    90     1   -3.709750463817E+00 -1.657951452546E+00  1.465754816448E+00
    89    91     1    3.709750463817E+00  1.952905074582E+00  7.139826142618E+00
    89    92     1    2.197954069859E+00 -1.952905074582E+00 -1.465754816448E+00
    89    93     1    2.197954069859E+00 -1.657951452546E+00  7.139826142618E+00
    89    94     1    3.709750463817E+00  1.657951452546E+00 -1.465754816448E+00
    89    95     1   -3.709750463817E+00 -1.952905074582E+00 -7.139826142618E+00
    89    96     1   -2.197954069859E+00  1.952905074582E+00  1.465754816448E+00
    97    97     1    1.155100544700E+00  1.359917762858E+00 -1.887600803310E+00
    97    98     1    4.752603988977E+00 -1.359917762858E+00  6.717980155755E+00
    97    99     1   -4.752603988977E+00  2.250938764271E+00  1.887600803310E+00
    97   100     1   -1.155100544700E+00 -2.250938764271E+00 -6.717980155755E+00
    97   101     1   -1.155100544700E+00 -1.359917762858E+00  1.887600803310E+00
    97   102     1   -4.752603988977E+00  1.359917762858E+00 -6.717980155755E+00
    97   103     1    4.752603988977E+00 -2.250938764271E+00 -1.887600803310E+00
    97   104     1    1.155100544700E+00  2.250938764271E+00  6.717980155755E+00
   105   105     1   -2.373542405808E+00  2.544481347681E+00 -1.964415251322E+00
   105   106     1   -3.534162127868E+00 -2.544481347681E+00  6.641165707744E+00
   105   107     1    3.534162127868E+00  1.066375179448E+00  1.964415251322E+00
   105   108     1    2.373542405808E+00 -1.066375179448E+00 -6.641165707744E+00
   105   109     1    2.373542405808E+00 -2.544481347681E+00  1.964415251322E+00
   105   110     1    3.534162127868E+00  2.544481347681E+00 -6.641165707744E+00
   105   111     1   -3.534162127868E+00 -1.066375179448E+00 -1.964415251322E+00
   105   112     1   -2.373542405808E+00  1.066375179448E+00  6.641165707744E+00
   113   113     1   -3.609244228434E+00  2.653713241006E+00 -4.054490229623E+00
   113   114     1   -2.298460305243E+00 -2.653713241006E+00  4.551090729443E+00
   113   115     1    2.298460305243E+00  9.571432861230E-01  4.054490229623E+00
   113   116     1    3.609244228434E+00 -9.571432861230E-01 -4.551090729443E+00
   113   117     1    3.609244228434E+00 -2.653713241006E+00  4.054490229623E+00
   113   118     1    2.298460305243E+00  2.653713241006E+00 -4.551090729443E+00
   113   119     1   -2.298460305243E+00 -9.571432861230E-01 -4.054490229623E+00
   113   120     1   -3.609244228434E+00  9.571432861230E-01  4.551090729443E+00
   121   121     1    1.524395550436E+00  2.563861691802E+00  6.582015745110E-01
   121   122     1    4.383308983240E+00 -2.563861691802E+00 -7.947379384554E+00
   121   123     1   -4.383308983240E+00  1.046994835327E+00 -6.582015745110E-01
   121   124     1   -1.524395550436E+00 -1.046994835327E+00  7.947379384554E+00
   121   125     1   -1.524395550436E+00 -2.563861691802E+00 -6.582015745110E-01
   121   126     1   -4.383308983240E+00  2.563861691802E+00  7.947379384554E+00
   121   127     1    4.383308983240E+00 -1.046994835327E+00  6.582015745110E-01
   121   128     1    1.524395550436E+00  1.046994835327E+00 -7.947379384554E+00
   129   129     1    1.806818566046E+00  8.906790721390E-01  1.903915297250E-01
   129   130     1    4.100885967631E+00 -8.906790721390E-01 -8.415189429340E+00
   129   131     1   -4.100885967631E+00  2.720177454989E+00 -1.903915297250E-01
   129   132     1   -1.806818566046E+00 -2.720177454989E+00  8.415189429340E+00
   129   133     1   -1.806818566046E+00 -8.906790721390E-01 -1.903915297250E-01
   129   134     1   -4.100885967631E+00  8.906790721390E-01  8.415189429340E+00
   129   135     1    4.100885967631E+00 -2.720177454989E+00  1.903915297250E-01
   129   136     1    1.806818566046E+00  2.720177454989E+00 -8.415189429340E+00
   137   137     1    7.236683553080E-01  1.261748037231E+00  1.534845976152E+00
   137   138     1    5.184036178369E+00 -1.261748037231E+00 -7.070734982913E+00
   137   139     1   -5.184036178369E+00  2.349108489897E+00 -1.534845976152E+00
   137   140     1   -7.236683553080E-01 -2.349108489897E+00  7.070734982913E+00
   137   141     1   -7.236683553080E-01 -1.261748037231E+00 -1.534845976152E+00
   137   142     1   -5.184036178369E+00  1.261748037231E+00  7.070734982913E+00
   137   143     1    5.184036178369E+00 -2.349108489897E+00  1.534845976152E+00
   137   144     1    7.236683553080E-01  2.349108489897E+00 -7.070734982913E+00
   145   145     1   -4.314883773750E-01  5.925337165710E-01 -6.050596006109E+00
   145   146     1   -5.476216156301E+00 -5.925337165710E-01  2.554984952956E+00
   145   147     1    5.476216156301E+00  3.018322810558E+00  6.050596006109E+00
   145   148     1    4.314883773750E-01 -3.018322810558E+00 -2.554984952956E+00
   145   149     1    4.314883773750E-01 -5.925337165710E-01  6.050596006109E+00
   145   150     1    5.476216156301E+00  5.925337165710E-01 -2.554984952956E+00
   145   151     1   -5.476216156301E+00 -3.018322810558E+00 -6.050596006109E+00
   145   152     1   -4.314883773750E-01  3.018322810558E+00  2.554984952956E+00
   153   153     1    8.200020567770E-01  5.024684972180E-01 -3.975379814573E+00
   153   154     1    5.087702476899E+00 -5.024684972180E-01  4.630201144492E+00
   153   155     1   -5.087702476899E+00  3.108388029911E+00  3.975379814573E+00
   153   156     1   -8.200020567770E-01 -3.108388029911E+00 -4.630201144492E+00
   153   157     1   -8.200020567770E-01 -5.024684972180E-01  3.975379814573E+00
   153   158     1   -5.087702476899E+00  5.024684972180E-01 -4.630201144492E+00
   153   159     1    5.087702476899E+00 -3.108388029911E+00 -3.975379814573E+00
   153   160     1    8.200020567770E-01  3.108388029911E+00  4.630201144492E+00

 SPACE  GROUP  N.                     :   61
 NUMBER OF SYMMETRY OPERATORS         :    8
 *******************************************************************************
 LATTICE PARAMETERS (ANGSTROMS AND DEGREES) - BOHR = 0.5291772083 ANGSTROM
 PRIMITIVE CELL - CENTRING CODE 1/0 VOLUME=  1468.585314 - DENSITY  1.366 g/cm^3
         A              B              C           ALPHA      BETA       GAMMA 
    11.81540907     7.22171305    17.21116192    90.000000  90.000000  90.000000
 *******************************************************************************
 ATOMS IN THE ASYMMETRIC UNIT   20 - ATOMS IN THE UNIT CELL:  160
     ATOM                 X/A                 Y/B                 Z/C    
 *******************************************************************************
      1 T   8 O    -2.362733474180E-01  2.466815733043E-01 -3.699861308034E-01
      2 F   8 O    -2.637266525800E-01 -2.466815733043E-01  1.300138691975E-01
      3 F   8 O     2.637266525800E-01  2.533184266954E-01  3.699861308034E-01
      4 F   8 O     2.362733474180E-01 -2.533184266954E-01 -1.300138691975E-01
      5 F   8 O     2.362733474180E-01 -2.466815733043E-01  3.699861308034E-01
      6 F   8 O     2.637266525800E-01  2.466815733043E-01 -1.300138691975E-01
      7 F   8 O    -2.637266525800E-01 -2.533184266954E-01 -3.699861308034E-01
      8 F   8 O    -2.362733474180E-01  2.533184266954E-01  1.300138691975E-01
      9 T   8 O    -1.064960271594E-01  2.734153570226E-01  8.211930119684E-04
     10 F   8 O    -3.935039728387E-01 -2.734153570226E-01 -4.991788069889E-01
     11 F   8 O     3.935039728387E-01  2.265846429773E-01 -8.211930119684E-04
     12 F   8 O     1.064960271594E-01 -2.265846429773E-01  4.991788069889E-01
     13 F   8 O     1.064960271594E-01 -2.734153570226E-01 -8.211930119684E-04
     14 F   8 O     3.935039728387E-01  2.734153570226E-01  4.991788069889E-01
     15 F   8 O    -3.935039728387E-01 -2.265846429773E-01  8.211930119684E-04
     16 F   8 O    -1.064960271594E-01  2.265846429773E-01 -4.991788069889E-01
     17 T   7 N     1.452445885555E-02  2.072556783013E-01 -9.734791709455E-02
     18 F   7 N     4.854755411425E-01 -2.072556783013E-01  4.026520829064E-01
     19 F   7 N    -4.854755411425E-01  2.927443216984E-01  9.734791709455E-02
     20 F   7 N    -1.452445885555E-02 -2.927443216984E-01 -4.026520829064E-01
     21 F   7 N    -1.452445885555E-02 -2.072556783013E-01  9.734791709455E-02
     22 F   7 N    -4.854755411425E-01  2.072556783013E-01 -4.026520829064E-01
     23 F   7 N     4.854755411425E-01 -2.927443216984E-01 -9.734791709455E-02
     24 F   7 N     1.452445885555E-02  2.927443216984E-01  4.026520829064E-01
     25 T   6 C    -1.775361373356E-01  2.310772801004E-01 -3.031026922981E-01
     26 F   6 C    -3.224638626624E-01 -2.310772801004E-01  1.968973077028E-01
     27 F   6 C     3.224638626624E-01  2.689227198995E-01  3.031026922981E-01
     28 F   6 C     1.775361373356E-01 -2.689227198995E-01 -1.968973077028E-01
     29 F   6 C     1.775361373356E-01 -2.310772801004E-01  3.031026922981E-01
     30 F   6 C     3.224638626624E-01  2.310772801004E-01 -1.968973077028E-01
     31 F   6 C    -3.224638626624E-01 -2.689227198995E-01 -3.031026922981E-01
     32 F   6 C    -1.775361373356E-01  2.689227198995E-01  1.968973077028E-01
     33 T   6 C    -5.627881585883E-02  2.126409569717E-01 -1.631049476356E-01
     34 F   6 C    -4.437211841391E-01 -2.126409569717E-01  3.368950523652E-01
     35 F   6 C     4.437211841391E-01  2.873590430281E-01  1.631049476356E-01
     36 F   6 C     5.627881585883E-02 -2.873590430281E-01 -3.368950523652E-01
     37 F   6 C     5.627881585883E-02 -2.126409569717E-01  1.631049476356E-01
     38 F   6 C     4.437211841391E-01  2.126409569717E-01 -3.368950523652E-01
     39 F   6 C    -4.437211841391E-01 -2.873590430281E-01 -1.631049476356E-01
     40 F   6 C    -5.627881585883E-02  2.873590430281E-01  3.368950523652E-01
     41 T   6 C    -1.634824757353E-01  2.927148501089E-01 -1.654402646035E-01
     42 F   6 C    -3.365175242627E-01 -2.927148501089E-01  3.345597353974E-01
     43 F   6 C     3.365175242627E-01  2.072851498909E-01  1.654402646035E-01
     44 F   6 C     1.634824757353E-01 -2.072851498909E-01 -3.345597353974E-01
     45 F   6 C     1.634824757353E-01 -2.927148501089E-01  1.654402646035E-01
     46 F   6 C     3.365175242627E-01  2.927148501089E-01 -3.345597353974E-01
     47 F   6 C    -3.365175242627E-01 -2.072851498909E-01 -1.654402646035E-01
     48 F   6 C    -1.634824757353E-01  2.072851498909E-01  3.345597353974E-01
     49 T   6 C    -2.232053662272E-01  3.015169155498E-01 -2.347747614346E-01
     50 F   6 C    -2.767946337709E-01 -3.015169155498E-01  2.652252385662E-01
     51 F   6 C     2.767946337709E-01  1.984830844501E-01  2.347747614346E-01
     52 F   6 C     2.232053662272E-01 -1.984830844501E-01 -2.652252385662E-01
     53 F   6 C     2.232053662272E-01 -3.015169155498E-01  2.347747614346E-01
     54 F   6 C     2.767946337709E-01  3.015169155498E-01 -2.652252385662E-01
     55 F   6 C    -2.767946337709E-01 -1.984830844501E-01 -2.347747614346E-01
     56 F   6 C    -2.232053662272E-01  1.984830844501E-01  2.652252385662E-01
     57 T   6 C     8.900140843498E-02  2.196223902699E-01  3.198850200340E-02
     58 F   6 C     4.109985915630E-01 -2.196223902699E-01 -4.680114979975E-01
     59 F   6 C    -4.109985915630E-01  2.803776097300E-01 -3.198850200340E-02
     60 F   6 C    -8.900140843498E-02 -2.803776097300E-01  4.680114979975E-01
     61 F   6 C    -8.900140843498E-02 -2.196223902699E-01 -3.198850200340E-02
     62 F   6 C    -4.109985915630E-01  2.196223902699E-01  4.680114979975E-01
     63 F   6 C     4.109985915630E-01 -2.803776097300E-01  3.198850200340E-02
     64 F   6 C     8.900140843498E-02  2.803776097300E-01 -4.680114979975E-01
     65 T   6 C    -7.223833167503E-02  1.450885574167E-01 -3.001187634165E-01
     66 F   6 C    -4.277616683230E-01 -1.450885574167E-01  1.998812365843E-01
     67 F   6 C     4.277616683230E-01  3.549114425832E-01  3.001187634165E-01
     68 F   6 C     7.223833167503E-02 -3.549114425832E-01 -1.998812365843E-01
     69 F   6 C     7.223833167503E-02 -1.450885574167E-01  3.001187634165E-01
     70 F   6 C     4.277616683230E-01  1.450885574167E-01 -1.998812365843E-01
     71 F   6 C    -4.277616683230E-01 -3.549114425832E-01 -3.001187634165E-01
     72 F   6 C    -7.223833167503E-02  3.549114425832E-01  1.998812365843E-01
     73 T   6 C    -1.064506539279E-02  2.350614526160E-01 -2.220726750366E-02
     74 F   6 C    -4.893549346053E-01 -2.350614526160E-01  4.777927324972E-01
     75 F   6 C     4.893549346053E-01  2.649385473839E-01  2.220726750366E-02
     76 F   6 C     1.064506539279E-02 -2.649385473839E-01 -4.777927324972E-01
     77 F   6 C     1.064506539279E-02 -2.350614526160E-01  2.220726750366E-02
     78 F   6 C     4.893549346053E-01  2.350614526160E-01 -4.777927324972E-01
     79 F   6 C    -4.893549346053E-01 -2.649385473839E-01 -2.220726750366E-02
     80 F   6 C    -1.064506539279E-02  2.649385473839E-01  4.777927324972E-01
     81 T   6 C    -1.259070716751E-02  1.367508739292E-01 -2.311763444861E-01
     82 F   6 C    -4.874092928305E-01 -1.367508739292E-01  2.688236555148E-01
     83 F   6 C     4.874092928305E-01  3.632491260705E-01  2.311763444861E-01
     84 F   6 C     1.259070716751E-02 -3.632491260705E-01 -2.688236555148E-01
     85 F   6 C     1.259070716751E-02 -1.367508739292E-01  2.311763444861E-01
     86 F   6 C     4.874092928305E-01  1.367508739292E-01 -2.688236555148E-01
     87 F   6 C    -4.874092928305E-01 -3.632491260705E-01 -2.311763444861E-01
     88 F   6 C    -1.259070716751E-02  3.632491260705E-01  2.688236555148E-01
     89 T   1 H    -1.860243735381E-01  2.295786941532E-01 -4.148369631634E-01
     90 F   1 H    -3.139756264599E-01 -2.295786941532E-01  8.516303683754E-02
     91 F   1 H     3.139756264599E-01  2.704213058465E-01  4.148369631634E-01
     92 F   1 H     1.860243735381E-01 -2.704213058465E-01 -8.516303683754E-02
     93 F   1 H     1.860243735381E-01 -2.295786941532E-01  4.148369631634E-01
     94 F   1 H     3.139756264599E-01  2.295786941532E-01 -8.516303683754E-02
     95 F   1 H    -3.139756264599E-01 -2.704213058465E-01 -4.148369631634E-01
     96 F   1 H    -1.860243735381E-01  2.704213058465E-01  8.516303683754E-02
     97 T   1 H     9.776221357304E-02  1.883095814858E-01 -1.096730605576E-01
     98 F   1 H     4.022377864250E-01 -1.883095814858E-01  3.903269394433E-01
     99 F   1 H    -4.022377864250E-01  3.116904185141E-01  1.096730605576E-01
    100 F   1 H    -9.776221357304E-02 -3.116904185141E-01 -3.903269394433E-01
    101 F   1 H    -9.776221357304E-02 -1.883095814858E-01  1.096730605576E-01
    102 F   1 H    -4.022377864250E-01  1.883095814858E-01 -3.903269394433E-01
    103 F   1 H     4.022377864250E-01 -3.116904185141E-01 -1.096730605576E-01
    104 F   1 H     9.776221357304E-02  3.116904185141E-01  3.903269394433E-01
    105 T   1 H    -2.008853347581E-01  3.523376418536E-01 -1.141361205402E-01
    106 F   1 H    -2.991146652399E-01 -3.523376418536E-01  3.858638794607E-01
    107 F   1 H     2.991146652399E-01  1.476623581463E-01  1.141361205402E-01
    108 F   1 H     2.008853347581E-01 -1.476623581463E-01 -3.858638794607E-01
    109 F   1 H     2.008853347581E-01 -3.523376418536E-01  1.141361205402E-01
    110 F   1 H     2.991146652399E-01  3.523376418536E-01 -3.858638794607E-01
    111 F   1 H    -2.991146652399E-01 -1.476623581463E-01 -1.141361205402E-01
    112 F   1 H    -2.008853347581E-01  1.476623581463E-01  3.858638794607E-01
    113 T   1 H    -3.054692569547E-01  3.674631242016E-01 -2.355733011470E-01
    114 F   1 H    -1.945307430434E-01 -3.674631242016E-01  2.644266988539E-01
    115 F   1 H     1.945307430434E-01  1.325368757982E-01  2.355733011470E-01
    116 F   1 H     3.054692569547E-01 -1.325368757982E-01 -2.644266988539E-01
    117 F   1 H     3.054692569547E-01 -3.674631242016E-01  2.355733011470E-01
    118 F   1 H     1.945307430434E-01  3.674631242016E-01 -2.644266988539E-01
    119 F   1 H    -1.945307430434E-01 -1.325368757982E-01 -2.355733011470E-01
    120 F   1 H    -3.054692569547E-01  1.325368757982E-01  2.644266988539E-01
    121 T   1 H     1.290175855732E-01  3.550212633123E-01  3.824271584005E-02
    122 F   1 H     3.709824144247E-01 -3.550212633123E-01 -4.617572841608E-01
    123 F   1 H    -3.709824144247E-01  1.449787366876E-01 -3.824271584005E-02
    124 F   1 H    -1.290175855732E-01 -1.449787366876E-01  4.617572841608E-01
    125 F   1 H    -1.290175855732E-01 -3.550212633123E-01 -3.824271584005E-02
    126 F   1 H    -3.709824144247E-01  3.550212633123E-01  4.617572841608E-01
    127 F   1 H     3.709824144247E-01 -1.449787366876E-01  3.824271584005E-02
    128 F   1 H     1.290175855732E-01  1.449787366876E-01 -4.617572841608E-01
    129 T   1 H     1.529205257083E-01  1.233334896370E-01  1.106209625073E-02
    130 F   1 H     3.470794742897E-01 -1.233334896370E-01 -4.889379037501E-01
    131 F   1 H    -3.470794742897E-01  3.766665103627E-01 -1.106209625073E-02
    132 F   1 H    -1.529205257083E-01 -3.766665103627E-01  4.889379037501E-01
    133 F   1 H    -1.529205257083E-01 -1.233334896370E-01 -1.106209625073E-02
    134 F   1 H    -3.470794742897E-01  1.233334896370E-01  4.889379037501E-01
    135 F   1 H     3.470794742897E-01 -3.766665103627E-01  1.106209625073E-02
    136 F   1 H     1.529205257083E-01  3.766665103627E-01 -4.889379037501E-01
    137 T   1 H     6.124784602716E-02  1.747158918876E-01  8.917735963764E-02
    138 F   1 H     4.387521539709E-01 -1.747158918876E-01 -4.108226403632E-01
    139 F   1 H    -4.387521539709E-01  3.252841081122E-01 -8.917735963764E-02
    140 F   1 H    -6.124784602716E-02 -3.252841081122E-01  4.108226403632E-01
    141 F   1 H    -6.124784602716E-02 -1.747158918876E-01 -8.917735963764E-02
    142 F   1 H    -4.387521539709E-01  1.747158918876E-01  4.108226403632E-01
    143 F   1 H     4.387521539709E-01 -3.252841081122E-01  8.917735963764E-02
    144 F   1 H     6.124784602716E-02  3.252841081122E-01 -4.108226403632E-01
    145 T   1 H    -3.651912302939E-02  8.204891444994E-02 -3.515506991859E-01
    146 F   1 H    -4.634808769686E-01 -8.204891444994E-02  1.484493008150E-01
    147 F   1 H     4.634808769686E-01  4.179510855499E-01  3.515506991859E-01
    148 F   1 H     3.651912302939E-02 -4.179510855499E-01 -1.484493008150E-01
    149 F   1 H     3.651912302939E-02 -8.204891444994E-02  3.515506991859E-01
    150 F   1 H     4.634808769686E-01  8.204891444994E-02 -1.484493008150E-01
    151 F   1 H    -4.634808769686E-01 -4.179510855499E-01 -3.515506991859E-01
    152 F   1 H    -3.651912302939E-02  4.179510855499E-01  1.484493008150E-01
    153 T   1 H     6.940107211687E-02  6.957746637712E-02 -2.309768412784E-01
    154 F   1 H     4.305989278811E-01 -6.957746637712E-02  2.690231587225E-01
    155 F   1 H    -4.305989278811E-01  4.304225336227E-01  2.309768412784E-01
    156 F   1 H    -6.940107211687E-02 -4.304225336227E-01 -2.690231587225E-01
    157 F   1 H    -6.940107211687E-02 -6.957746637712E-02  2.309768412784E-01
    158 F   1 H    -4.305989278811E-01  6.957746637712E-02 -2.690231587225E-01
    159 F   1 H     4.305989278811E-01 -4.304225336227E-01 -2.309768412784E-01
    160 F   1 H     6.940107211687E-02  4.304225336227E-01  2.690231587225E-01

 T = ATOM BELONGING TO THE ASYMMETRIC UNIT
 *******************************************************************************
 * GEOMETRY EDITING - INPUT COORDINATES ARE GIVEN IN ANGSTROM         
 *******************************************************************************

 GEOMETRY NOW FULLY CONSISTENT WITH THE GROUP

 FRQFRQFRQFRQFRQFRQFRQFRQFRQFRQFRQFRQFRQFRQFRQFRQFRQFRQFRQFRQFRQFRQFRQFRQFRQFRQ

                       FREQUENCY CALCULATION

 INFORMATION **** INPFREQ **** FREQUENCY CALCULATION RESTART(DATA FROM FREQINFO.DAT)
 INFORMATION **** INPFREQ ****  PRINTING OF EIGENVECTORS
 INFORMATION **** INPFREQ **** NEW DEFAULT - IMPOSING ECKART CONDITIONS TO THE HESSIAN

 GCALCO - MAX INDICES DIRECT LATTICE VECTOR    14    23     9
 NO.OF VECTORS CREATED 6999 STARS 1062 RMAX   255.06238 BOHR

 GEOMETRY FOR WAVE FUNCTION - DIMENSIONALITY OF THE SYSTEM    3
 (NON PERIODIC DIRECTION: LATTICE PARAMETER FORMALLY SET TO 500)
 *******************************************************************************
 LATTICE PARAMETERS (ANGSTROMS AND DEGREES) - BOHR = 0.5291772083 ANGSTROM
 PRIMITIVE CELL - CENTRING CODE 1/0 VOLUME=  1468.585314 - DENSITY  1.366 g/cm^3
         A              B              C           ALPHA      BETA       GAMMA 
    11.81540907     7.22171305    17.21116192    90.000000  90.000000  90.000000
 *******************************************************************************
 ATOMS IN THE ASYMMETRIC UNIT   20 - ATOMS IN THE UNIT CELL:  160
     ATOM                 X/A                 Y/B                 Z/C    
 *******************************************************************************
      1 T   8 O    -2.362733474180E-01  2.466815733043E-01 -3.699861308034E-01
      2 F   8 O    -2.637266525837E-01 -2.466815733043E-01  1.300138691978E-01
      3 F   8 O     2.637266525803E-01  2.533184266957E-01  3.699861308034E-01
      4 F   8 O     2.362733474180E-01 -2.533184266957E-01 -1.300138691955E-01
      5 F   8 O     2.362733474180E-01 -2.466815733043E-01  3.699861308034E-01
      6 F   8 O     2.637266525803E-01  2.466815733043E-01 -1.300138691955E-01
      7 F   8 O    -2.637266525837E-01 -2.533184266957E-01 -3.699861308034E-01
      8 F   8 O    -2.362733474180E-01  2.533184266957E-01  1.300138691978E-01
      9 T   8 O    -1.064960271594E-01  2.734153570226E-01  8.211930119684E-04
     10 F   8 O    -3.935039728423E-01 -2.734153570226E-01 -4.991788069869E-01
     11 F   8 O     3.935039728389E-01  2.265846429774E-01 -8.211930119684E-04
     12 F   8 O     1.064960271594E-01 -2.265846429774E-01  4.991788069892E-01
     13 F   8 O     1.064960271594E-01 -2.734153570226E-01 -8.211930119684E-04
     14 F   8 O     3.935039728389E-01  2.734153570226E-01  4.991788069892E-01
     15 F   8 O    -3.935039728423E-01 -2.265846429774E-01  8.211930119684E-04
     16 F   8 O    -1.064960271594E-01  2.265846429774E-01 -4.991788069869E-01
     17 T   7 N     1.452445885555E-02  2.072556783013E-01 -9.734791709455E-02
     18 F   7 N     4.854755411428E-01 -2.072556783013E-01  4.026520829066E-01
     19 F   7 N    -4.854755411461E-01  2.927443216987E-01  9.734791709455E-02
     20 F   7 N    -1.452445885555E-02 -2.927443216987E-01 -4.026520829043E-01
     21 F   7 N    -1.452445885555E-02 -2.072556783013E-01  9.734791709455E-02
     22 F   7 N    -4.854755411461E-01  2.072556783013E-01 -4.026520829043E-01
     23 F   7 N     4.854755411428E-01 -2.927443216987E-01 -9.734791709455E-02
     24 F   7 N     1.452445885555E-02  2.927443216987E-01  4.026520829066E-01
     25 T   6 C    -1.775361373356E-01  2.310772801004E-01 -3.031026922981E-01
     26 F   6 C    -3.224638626661E-01 -2.310772801004E-01  1.968973077030E-01
     27 F   6 C     3.224638626627E-01  2.689227198996E-01  3.031026922981E-01
     28 F   6 C     1.775361373356E-01 -2.689227198996E-01 -1.968973077007E-01
     29 F   6 C     1.775361373356E-01 -2.310772801004E-01  3.031026922981E-01
     30 F   6 C     3.224638626627E-01  2.310772801004E-01 -1.968973077007E-01
     31 F   6 C    -3.224638626661E-01 -2.689227198996E-01 -3.031026922981E-01
     32 F   6 C    -1.775361373356E-01  2.689227198996E-01  1.968973077030E-01
     33 T   6 C    -5.627881585883E-02  2.126409569717E-01 -1.631049476356E-01
     34 F   6 C    -4.437211841429E-01 -2.126409569717E-01  3.368950523655E-01
     35 F   6 C     4.437211841395E-01  2.873590430283E-01  1.631049476356E-01
     36 F   6 C     5.627881585883E-02 -2.873590430283E-01 -3.368950523632E-01
     37 F   6 C     5.627881585883E-02 -2.126409569717E-01  1.631049476356E-01
     38 F   6 C     4.437211841395E-01  2.126409569717E-01 -3.368950523632E-01
     39 F   6 C    -4.437211841429E-01 -2.873590430283E-01 -1.631049476356E-01
     40 F   6 C    -5.627881585883E-02  2.873590430283E-01  3.368950523655E-01
     41 T   6 C    -1.634824757353E-01  2.927148501089E-01 -1.654402646035E-01
     42 F   6 C    -3.365175242664E-01 -2.927148501089E-01  3.345597353977E-01
     43 F   6 C     3.365175242630E-01  2.072851498911E-01  1.654402646035E-01
     44 F   6 C     1.634824757353E-01 -2.072851498911E-01 -3.345597353953E-01
     45 F   6 C     1.634824757353E-01 -2.927148501089E-01  1.654402646035E-01
     46 F   6 C     3.365175242630E-01  2.927148501089E-01 -3.345597353953E-01
     47 F   6 C    -3.365175242664E-01 -2.072851498911E-01 -1.654402646035E-01
     48 F   6 C    -1.634824757353E-01  2.072851498911E-01  3.345597353977E-01
     49 T   6 C    -2.232053662272E-01  3.015169155498E-01 -2.347747614346E-01
     50 F   6 C    -2.767946337745E-01 -3.015169155498E-01  2.652252385665E-01
     51 F   6 C     2.767946337711E-01  1.984830844502E-01  2.347747614346E-01
     52 F   6 C     2.232053662272E-01 -1.984830844502E-01 -2.652252385642E-01
     53 F   6 C     2.232053662272E-01 -3.015169155498E-01  2.347747614346E-01
     54 F   6 C     2.767946337711E-01  3.015169155498E-01 -2.652252385642E-01
     55 F   6 C    -2.767946337745E-01 -1.984830844502E-01 -2.347747614346E-01
     56 F   6 C    -2.232053662272E-01  1.984830844502E-01  2.652252385665E-01
     57 T   6 C     8.900140843498E-02  2.196223902699E-01  3.198850200340E-02
     58 F   6 C     4.109985915633E-01 -2.196223902699E-01 -4.680114979954E-01
     59 F   6 C    -4.109985915667E-01  2.803776097301E-01 -3.198850200340E-02
     60 F   6 C    -8.900140843498E-02 -2.803776097301E-01  4.680114979978E-01
     61 F   6 C    -8.900140843498E-02 -2.196223902699E-01 -3.198850200340E-02
     62 F   6 C    -4.109985915667E-01  2.196223902699E-01  4.680114979978E-01
     63 F   6 C     4.109985915633E-01 -2.803776097301E-01  3.198850200340E-02
     64 F   6 C     8.900140843498E-02  2.803776097301E-01 -4.680114979954E-01
     65 T   6 C    -7.223833167503E-02  1.450885574167E-01 -3.001187634165E-01
     66 F   6 C    -4.277616683267E-01 -1.450885574167E-01  1.998812365846E-01
     67 F   6 C     4.277616683233E-01  3.549114425833E-01  3.001187634165E-01
     68 F   6 C     7.223833167503E-02 -3.549114425833E-01 -1.998812365823E-01
     69 F   6 C     7.223833167503E-02 -1.450885574167E-01  3.001187634165E-01
     70 F   6 C     4.277616683233E-01  1.450885574167E-01 -1.998812365823E-01
     71 F   6 C    -4.277616683267E-01 -3.549114425833E-01 -3.001187634165E-01
     72 F   6 C    -7.223833167503E-02  3.549114425833E-01  1.998812365846E-01
     73 T   6 C    -1.064506539279E-02  2.350614526160E-01 -2.220726750366E-02
     74 F   6 C    -4.893549346089E-01 -2.350614526160E-01  4.777927324975E-01
     75 F   6 C     4.893549346055E-01  2.649385473840E-01  2.220726750366E-02
     76 F   6 C     1.064506539279E-02 -2.649385473840E-01 -4.777927324952E-01
     77 F   6 C     1.064506539279E-02 -2.350614526160E-01  2.220726750366E-02
     78 F   6 C     4.893549346055E-01  2.350614526160E-01 -4.777927324952E-01
     79 F   6 C    -4.893549346089E-01 -2.649385473840E-01 -2.220726750366E-02
     80 F   6 C    -1.064506539279E-02  2.649385473840E-01  4.777927324975E-01
     81 T   6 C    -1.259070716751E-02  1.367508739292E-01 -2.311763444861E-01
     82 F   6 C    -4.874092928342E-01 -1.367508739292E-01  2.688236555151E-01
     83 F   6 C     4.874092928308E-01  3.632491260708E-01  2.311763444861E-01
     84 F   6 C     1.259070716751E-02 -3.632491260708E-01 -2.688236555128E-01
     85 F   6 C     1.259070716751E-02 -1.367508739292E-01  2.311763444861E-01
     86 F   6 C     4.874092928308E-01  1.367508739292E-01 -2.688236555128E-01
     87 F   6 C    -4.874092928342E-01 -3.632491260708E-01 -2.311763444861E-01
     88 F   6 C    -1.259070716751E-02  3.632491260708E-01  2.688236555151E-01
     89 T   1 H    -1.860243735381E-01  2.295786941532E-01 -4.148369631634E-01
     90 F   1 H    -3.139756264636E-01 -2.295786941532E-01  8.516303683777E-02
     91 F   1 H     3.139756264602E-01  2.704213058468E-01  4.148369631634E-01
     92 F   1 H     1.860243735381E-01 -2.704213058468E-01 -8.516303683545E-02
     93 F   1 H     1.860243735381E-01 -2.295786941532E-01  4.148369631634E-01
     94 F   1 H     3.139756264602E-01  2.295786941532E-01 -8.516303683545E-02
     95 F   1 H    -3.139756264636E-01 -2.704213058468E-01 -4.148369631634E-01
     96 F   1 H    -1.860243735381E-01  2.704213058468E-01  8.516303683777E-02
     97 T   1 H     9.776221357304E-02  1.883095814858E-01 -1.096730605576E-01
     98 F   1 H     4.022377864253E-01 -1.883095814858E-01  3.903269394436E-01
     99 F   1 H    -4.022377864287E-01  3.116904185142E-01  1.096730605576E-01
    100 F   1 H    -9.776221357304E-02 -3.116904185142E-01 -3.903269394413E-01
    101 F   1 H    -9.776221357304E-02 -1.883095814858E-01  1.096730605576E-01
    102 F   1 H    -4.022377864287E-01  1.883095814858E-01 -3.903269394413E-01
    103 F   1 H     4.022377864253E-01 -3.116904185142E-01 -1.096730605576E-01
    104 F   1 H     9.776221357304E-02  3.116904185142E-01  3.903269394436E-01
    105 T   1 H    -2.008853347581E-01  3.523376418536E-01 -1.141361205402E-01
    106 F   1 H    -2.991146652436E-01 -3.523376418536E-01  3.858638794609E-01
    107 F   1 H     2.991146652403E-01  1.476623581464E-01  1.141361205402E-01
    108 F   1 H     2.008853347581E-01 -1.476623581464E-01 -3.858638794586E-01
    109 F   1 H     2.008853347581E-01 -3.523376418536E-01  1.141361205402E-01
    110 F   1 H     2.991146652403E-01  3.523376418536E-01 -3.858638794586E-01
    111 F   1 H    -2.991146652436E-01 -1.476623581464E-01 -1.141361205402E-01
    112 F   1 H    -2.008853347581E-01  1.476623581464E-01  3.858638794609E-01
    113 T   1 H    -3.054692569547E-01  3.674631242016E-01 -2.355733011470E-01
    114 F   1 H    -1.945307430470E-01 -3.674631242016E-01  2.644266988541E-01
    115 F   1 H     1.945307430436E-01  1.325368757984E-01  2.355733011470E-01
    116 F   1 H     3.054692569547E-01 -1.325368757984E-01 -2.644266988518E-01
    117 F   1 H     3.054692569547E-01 -3.674631242016E-01  2.355733011470E-01
    118 F   1 H     1.945307430436E-01  3.674631242016E-01 -2.644266988518E-01
    119 F   1 H    -1.945307430470E-01 -1.325368757984E-01 -2.355733011470E-01
    120 F   1 H    -3.054692569547E-01  1.325368757984E-01  2.644266988541E-01
    121 T   1 H     1.290175855732E-01  3.550212633123E-01  3.824271584005E-02
    122 F   1 H     3.709824144251E-01 -3.550212633123E-01 -4.617572841588E-01
    123 F   1 H    -3.709824144285E-01  1.449787366877E-01 -3.824271584005E-02
    124 F   1 H    -1.290175855732E-01 -1.449787366877E-01  4.617572841611E-01
    125 F   1 H    -1.290175855732E-01 -3.550212633123E-01 -3.824271584005E-02
    126 F   1 H    -3.709824144285E-01  3.550212633123E-01  4.617572841611E-01
    127 F   1 H     3.709824144251E-01 -1.449787366877E-01  3.824271584005E-02
    128 F   1 H     1.290175855732E-01  1.449787366877E-01 -4.617572841588E-01
    129 T   1 H     1.529205257083E-01  1.233334896370E-01  1.106209625073E-02
    130 F   1 H     3.470794742900E-01 -1.233334896370E-01 -4.889379037481E-01
    131 F   1 H    -3.470794742933E-01  3.766665103630E-01 -1.106209625073E-02
    132 F   1 H    -1.529205257083E-01 -3.766665103630E-01  4.889379037504E-01
    133 F   1 H    -1.529205257083E-01 -1.233334896370E-01 -1.106209625073E-02
    134 F   1 H    -3.470794742933E-01  1.233334896370E-01  4.889379037504E-01
    135 F   1 H     3.470794742900E-01 -3.766665103630E-01  1.106209625073E-02
    136 F   1 H     1.529205257083E-01  3.766665103630E-01 -4.889379037481E-01
    137 T   1 H     6.124784602716E-02  1.747158918876E-01  8.917735963764E-02
    138 F   1 H     4.387521539711E-01 -1.747158918876E-01 -4.108226403612E-01
    139 F   1 H    -4.387521539745E-01  3.252841081124E-01 -8.917735963764E-02
    140 F   1 H    -6.124784602716E-02 -3.252841081124E-01  4.108226403635E-01
    141 F   1 H    -6.124784602716E-02 -1.747158918876E-01 -8.917735963764E-02
    142 F   1 H    -4.387521539745E-01  1.747158918876E-01  4.108226403635E-01
    143 F   1 H     4.387521539711E-01 -3.252841081124E-01  8.917735963764E-02
    144 F   1 H     6.124784602716E-02  3.252841081124E-01 -4.108226403612E-01
    145 T   1 H    -3.651912302939E-02  8.204891444994E-02 -3.515506991859E-01
    146 F   1 H    -4.634808769723E-01 -8.204891444994E-02  1.484493008153E-01
    147 F   1 H     4.634808769689E-01  4.179510855501E-01  3.515506991859E-01
    148 F   1 H     3.651912302939E-02 -4.179510855501E-01 -1.484493008130E-01
    149 F   1 H     3.651912302939E-02 -8.204891444994E-02  3.515506991859E-01
    150 F   1 H     4.634808769689E-01  8.204891444994E-02 -1.484493008130E-01
    151 F   1 H    -4.634808769723E-01 -4.179510855501E-01 -3.515506991859E-01
    152 F   1 H    -3.651912302939E-02  4.179510855501E-01  1.484493008153E-01
    153 T   1 H     6.940107211687E-02  6.957746637712E-02 -2.309768412784E-01
    154 F   1 H     4.305989278814E-01 -6.957746637712E-02  2.690231587228E-01
    155 F   1 H    -4.305989278848E-01  4.304225336229E-01  2.309768412784E-01
    156 F   1 H    -6.940107211687E-02 -4.304225336229E-01 -2.690231587205E-01
    157 F   1 H    -6.940107211687E-02 -6.957746637712E-02  2.309768412784E-01
    158 F   1 H    -4.305989278848E-01  6.957746637712E-02 -2.690231587205E-01
    159 F   1 H     4.305989278814E-01 -4.304225336229E-01 -2.309768412784E-01
    160 F   1 H     6.940107211687E-02  4.304225336229E-01  2.690231587228E-01

 T = ATOM BELONGING TO THE ASYMMETRIC UNIT

 ****    8 SYMMOPS - TRANSLATORS IN FRACTIONAL UNITS
 **** MATRICES AND TRANSLATORS IN THE CRYSTALLOGRAPHIC REFERENCE FRAME
   V INV                    ROTATION MATRICES                   TRANSLATORS
   1   1  1.00  0.00  0.00  0.00  1.00  0.00  0.00  0.00  1.00  0.00  0.00  0.00
   2   2 -1.00  0.00  0.00  0.00 -1.00  0.00  0.00  0.00  1.00  0.50  0.00  0.50
   3   3  1.00  0.00  0.00  0.00 -1.00  0.00  0.00  0.00 -1.00  0.50  0.50  0.00
   4   4 -1.00  0.00  0.00  0.00  1.00  0.00  0.00  0.00 -1.00  0.00  0.50  0.50
   5   5 -1.00  0.00  0.00  0.00 -1.00  0.00  0.00  0.00 -1.00  0.00  0.00  0.00
   6   6  1.00  0.00  0.00  0.00  1.00  0.00  0.00  0.00 -1.00  0.50  0.00  0.50
   7   7 -1.00  0.00  0.00  0.00  1.00  0.00  0.00  0.00  1.00  0.50  0.50  0.00
   8   8  1.00  0.00  0.00  0.00 -1.00  0.00  0.00  0.00  1.00  0.00  0.50  0.50

 DIRECT LATTICE VECTORS CARTESIAN COMPONENTS (ANGSTROM)
          X                    Y                    Z
   0.118154090674E+02   0.000000000000E+00   0.000000000000E+00
   0.000000000000E+00   0.722171305426E+01   0.000000000000E+00
   0.000000000000E+00   0.000000000000E+00   0.172111619181E+02


 CARTESIAN COORDINATES - PRIMITIVE CELL
 *******************************************************************************
 *      ATOM          X(ANGSTROM)         Y(ANGSTROM)         Z(ANGSTROM)
 *******************************************************************************
    1     8 O    -2.791666251468E+00  1.781463538177E+00 -6.367891204708E+00
    2     8 O    -3.116038282252E+00 -1.781463538177E+00  2.237689754362E+00
    3     8 O     3.116038282212E+00  1.829392988953E+00  6.367891204708E+00
    4     8 O     2.791666251468E+00 -1.829392988953E+00 -2.237689754322E+00
    5     8 O     2.791666251468E+00 -1.781463538177E+00  6.367891204708E+00
    6     8 O     3.116038282212E+00  1.781463538177E+00 -2.237689754322E+00
    7     8 O    -3.116038282252E+00 -1.829392988953E+00 -6.367891204708E+00
    8     8 O    -2.791666251468E+00  1.829392988953E+00  2.237689754362E+00
    9     8 O    -1.258294124941E+00  1.974527253045E+00  1.413368589500E-02
   10     8 O    -4.649410408779E+00 -1.974527253045E+00 -8.591447273135E+00
   11     8 O     4.649410408739E+00  1.636329274085E+00 -1.413368589500E-02
   12     8 O     1.258294124941E+00 -1.636329274085E+00  8.591447273175E+00
   13     8 O     1.258294124941E+00 -1.974527253045E+00 -1.413368589500E-02
   14     8 O     4.649410408739E+00  1.974527253045E+00  8.591447273175E+00
   15     8 O    -4.649410408779E+00 -1.636329274085E+00  1.413368589500E-02
   16     8 O    -1.258294124941E+00  1.636329274085E+00 -8.591447273135E+00
   17     7 N     1.716124228610E-01  1.496741037558E+00 -1.675470763504E+00
   18     7 N     5.736092110819E+00 -1.496741037558E+00  6.930110195566E+00
   19     7 N    -5.736092110859E+00  2.114115489572E+00  1.675470763504E+00
   20     7 N    -1.716124228610E-01 -2.114115489572E+00 -6.930110195526E+00
   21     7 N    -1.716124228610E-01 -1.496741037558E+00  1.675470763504E+00
   22     7 N    -5.736092110859E+00  1.496741037558E+00 -6.930110195526E+00
   23     7 N     5.736092110819E+00 -2.114115489572E+00 -1.675470763504E+00
   24     7 N     1.716124228610E-01  2.114115489572E+00  6.930110195566E+00
   25     6 C    -2.097662086866E+00  1.668773810244E+00 -5.216749514955E+00
   26     6 C    -3.810042446854E+00 -1.668773810244E+00  3.388831444115E+00
   27     6 C     3.810042446814E+00  1.942082716886E+00  5.216749514955E+00
   28     6 C     2.097662086866E+00 -1.942082716886E+00 -3.388831444075E+00
   29     6 C     2.097662086866E+00 -1.668773810244E+00  5.216749514955E+00
   30     6 C     3.810042446814E+00  1.668773810244E+00 -3.388831444075E+00
   31     6 C    -3.810042446854E+00 -1.942082716886E+00 -5.216749514955E+00
   32     6 C    -2.097662086866E+00  1.942082716886E+00  3.388831444115E+00
   33     6 C    -6.649572312010E-01  1.535631974833E+00 -2.807225663400E+00
   34     6 C    -5.242747302519E+00 -1.535631974833E+00  5.798355295670E+00
   35     6 C     5.242747302479E+00  2.075224552297E+00  2.807225663400E+00
   36     6 C     6.649572312010E-01 -2.075224552297E+00 -5.798355295630E+00
   37     6 C     6.649572312010E-01 -1.535631974833E+00  2.807225663400E+00
   38     6 C     5.242747302479E+00  1.535631974833E+00 -5.798355295630E+00
   39     6 C    -5.242747302519E+00 -2.075224552297E+00 -2.807225663400E+00
   40     6 C    -6.649572312010E-01  2.075224552297E+00  5.798355295670E+00
   41     6 C    -1.931612326164E+00  2.113902654207E+00 -2.847419181864E+00
   42     6 C    -3.976092207556E+00 -2.113902654207E+00  5.758161777206E+00
   43     6 C     3.976092207516E+00  1.496953872923E+00  2.847419181864E+00
   44     6 C     1.931612326164E+00 -1.496953872923E+00 -5.758161777166E+00
   45     6 C     1.931612326164E+00 -2.113902654207E+00  2.847419181864E+00
   46     6 C     3.976092207516E+00  2.113902654207E+00 -5.758161777166E+00
   47     6 C    -3.976092207556E+00 -1.496953872923E+00 -2.847419181864E+00
   48     6 C    -1.931612326164E+00  1.496953872923E+00  5.758161777206E+00
   49     6 C    -2.637262708013E+00  2.177468645106E+00 -4.040746433335E+00
   50     6 C    -3.270441825707E+00 -2.177468645106E+00  4.564834525735E+00
   51     6 C     3.270441825667E+00  1.433387882024E+00  4.040746433335E+00
   52     6 C     2.637262708013E+00 -1.433387882024E+00 -4.564834525695E+00
   53     6 C     2.637262708013E+00 -2.177468645106E+00  4.040746433335E+00
   54     6 C     3.270441825667E+00  2.177468645106E+00 -4.564834525695E+00
   55     6 C    -3.270441825707E+00 -1.433387882024E+00 -4.040746433335E+00
   56     6 C    -2.637262708013E+00  1.433387882024E+00  4.564834525735E+00
   57     6 C     1.051588048234E+00  1.586049882820E+00  5.505592874980E-01
   58     6 C     4.856116485446E+00 -1.586049882820E+00 -8.055021671532E+00
   59     6 C    -4.856116485486E+00  2.024806644310E+00 -5.505592874980E-01
   60     6 C    -1.051588048234E+00 -2.024806644310E+00  8.055021671572E+00
   61     6 C    -1.051588048234E+00 -1.586049882820E+00 -5.505592874980E-01
   62     6 C    -4.856116485486E+00  1.586049882820E+00  8.055021671572E+00
   63     6 C     4.856116485446E+00 -2.024806644310E+00  5.505592874980E-01
   64     6 C     1.051588048234E+00  2.024806644310E+00 -8.055021671532E+00
   65     6 C    -8.535254390870E-01  1.047787929120E+00 -5.165392631822E+00
   66     6 C    -5.054179094633E+00 -1.047787929120E+00  3.440188327248E+00
   67     6 C     5.054179094593E+00  2.563068598010E+00  5.165392631822E+00
   68     6 C     8.535254390870E-01 -2.563068598010E+00 -3.440188327208E+00
   69     6 C     8.535254390870E-01 -1.047787929120E+00  5.165392631822E+00
   70     6 C     5.054179094593E+00  1.047787929120E+00 -3.440188327208E+00
   71     6 C    -5.054179094633E+00 -2.563068598010E+00 -5.165392631822E+00
   72     6 C    -8.535254390870E-01  2.563068598010E+00  3.440188327248E+00
   73     6 C    -1.257758021650E-01  1.697546360910E+00 -3.822128767640E-01
   74     6 C    -5.781928731555E+00 -1.697546360910E+00  8.223368082306E+00
   75     6 C     5.781928731515E+00  1.913310166220E+00  3.822128767640E-01
   76     6 C     1.257758021650E-01 -1.913310166220E+00 -8.223368082266E+00
   77     6 C     1.257758021650E-01 -1.697546360910E+00  3.822128767640E-01
   78     6 C     5.781928731515E+00  1.697546360910E+00 -8.223368082266E+00
   79     6 C    -5.781928731555E+00 -1.913310166220E+00 -3.822128767640E-01
   80     6 C    -1.257758021650E-01  1.913310166220E+00  8.223368082306E+00
   81     6 C    -1.487643556320E-01  9.875755714360E-01 -3.978813496584E+00
   82     6 C    -5.758940178088E+00 -9.875755714360E-01  4.626767462486E+00
   83     6 C     5.758940178048E+00  2.623280955694E+00  3.978813496584E+00
   84     6 C     1.487643556320E-01 -2.623280955694E+00 -4.626767462446E+00
   85     6 C     1.487643556320E-01 -9.875755714360E-01  3.978813496584E+00
   86     6 C     5.758940178048E+00  9.875755714360E-01 -4.626767462446E+00
   87     6 C    -5.758940178088E+00 -2.623280955694E+00 -3.978813496584E+00
   88     6 C    -1.487643556320E-01  2.623280955694E+00  4.626767462486E+00
   89     1 H    -2.197954069859E+00  1.657951452546E+00 -7.139826142618E+00
   90     1 H    -3.709750463861E+00 -1.657951452546E+00  1.465754816452E+00
   91     1 H     3.709750463821E+00  1.952905074584E+00  7.139826142618E+00
   92     1 H     2.197954069859E+00 -1.952905074584E+00 -1.465754816412E+00
   93     1 H     2.197954069859E+00 -1.657951452546E+00  7.139826142618E+00
   94     1 H     3.709750463821E+00  1.657951452546E+00 -1.465754816412E+00
   95     1 H    -3.709750463861E+00 -1.952905074584E+00 -7.139826142618E+00
   96     1 H    -2.197954069859E+00  1.952905074584E+00  1.465754816452E+00
   97     1 H     1.155100544700E+00  1.359917762858E+00 -1.887600803310E+00
   98     1 H     4.752603988980E+00 -1.359917762858E+00  6.717980155760E+00
   99     1 H    -4.752603989020E+00  2.250938764272E+00  1.887600803310E+00
  100     1 H    -1.155100544700E+00 -2.250938764272E+00 -6.717980155720E+00
  101     1 H    -1.155100544700E+00 -1.359917762858E+00  1.887600803310E+00
  102     1 H    -4.752603989020E+00  1.359917762858E+00 -6.717980155720E+00
  103     1 H     4.752603988980E+00 -2.250938764272E+00 -1.887600803310E+00
  104     1 H     1.155100544700E+00  2.250938764272E+00  6.717980155760E+00
  105     1 H    -2.373542405808E+00  2.544481347681E+00 -1.964415251322E+00
  106     1 H    -3.534162127912E+00 -2.544481347681E+00  6.641165707748E+00
  107     1 H     3.534162127872E+00  1.066375179449E+00  1.964415251322E+00
  108     1 H     2.373542405808E+00 -1.066375179449E+00 -6.641165707708E+00
  109     1 H     2.373542405808E+00 -2.544481347681E+00  1.964415251322E+00
  110     1 H     3.534162127872E+00  2.544481347681E+00 -6.641165707708E+00
  111     1 H    -3.534162127912E+00 -1.066375179449E+00 -1.964415251322E+00
  112     1 H    -2.373542405808E+00  1.066375179449E+00  6.641165707748E+00
  113     1 H    -3.609244228434E+00  2.653713241006E+00 -4.054490229623E+00
  114     1 H    -2.298460305286E+00 -2.653713241006E+00  4.551090729447E+00
  115     1 H     2.298460305246E+00  9.571432861240E-01  4.054490229623E+00
  116     1 H     3.609244228434E+00 -9.571432861240E-01 -4.551090729407E+00
  117     1 H     3.609244228434E+00 -2.653713241006E+00  4.054490229623E+00
  118     1 H     2.298460305246E+00  2.653713241006E+00 -4.551090729407E+00
  119     1 H    -2.298460305286E+00 -9.571432861240E-01 -4.054490229623E+00
  120     1 H    -3.609244228434E+00  9.571432861240E-01  4.551090729447E+00
  121     1 H     1.524395550436E+00  2.563861691802E+00  6.582015745110E-01
  122     1 H     4.383308983244E+00 -2.563861691802E+00 -7.947379384519E+00
  123     1 H    -4.383308983284E+00  1.046994835328E+00 -6.582015745110E-01
  124     1 H    -1.524395550436E+00 -1.046994835328E+00  7.947379384559E+00
  125     1 H    -1.524395550436E+00 -2.563861691802E+00 -6.582015745110E-01
  126     1 H    -4.383308983284E+00  2.563861691802E+00  7.947379384559E+00
  127     1 H     4.383308983244E+00 -1.046994835328E+00  6.582015745110E-01
  128     1 H     1.524395550436E+00  1.046994835328E+00 -7.947379384519E+00
  129     1 H     1.806818566046E+00  8.906790721390E-01  1.903915297250E-01
  130     1 H     4.100885967634E+00 -8.906790721390E-01 -8.415189429305E+00
  131     1 H    -4.100885967674E+00  2.720177454991E+00 -1.903915297250E-01
  132     1 H    -1.806818566046E+00 -2.720177454991E+00  8.415189429345E+00
  133     1 H    -1.806818566046E+00 -8.906790721390E-01 -1.903915297250E-01
  134     1 H    -4.100885967674E+00  8.906790721390E-01  8.415189429345E+00
  135     1 H     4.100885967634E+00 -2.720177454991E+00  1.903915297250E-01
  136     1 H     1.806818566046E+00  2.720177454991E+00 -8.415189429305E+00
  137     1 H     7.236683553080E-01  1.261748037231E+00  1.534845976152E+00
  138     1 H     5.184036178372E+00 -1.261748037231E+00 -7.070734982878E+00
  139     1 H    -5.184036178412E+00  2.349108489899E+00 -1.534845976152E+00
  140     1 H    -7.236683553080E-01 -2.349108489899E+00  7.070734982918E+00
  141     1 H    -7.236683553080E-01 -1.261748037231E+00 -1.534845976152E+00
  142     1 H    -5.184036178412E+00  1.261748037231E+00  7.070734982918E+00
  143     1 H     5.184036178372E+00 -2.349108489899E+00  1.534845976152E+00
  144     1 H     7.236683553080E-01  2.349108489899E+00 -7.070734982878E+00
  145     1 H    -4.314883773750E-01  5.925337165710E-01 -6.050596006109E+00
  146     1 H    -5.476216156345E+00 -5.925337165710E-01  2.554984952961E+00
  147     1 H     5.476216156305E+00  3.018322810559E+00  6.050596006109E+00
  148     1 H     4.314883773750E-01 -3.018322810559E+00 -2.554984952921E+00
  149     1 H     4.314883773750E-01 -5.925337165710E-01  6.050596006109E+00
  150     1 H     5.476216156305E+00  5.925337165710E-01 -2.554984952921E+00
  151     1 H    -5.476216156345E+00 -3.018322810559E+00 -6.050596006109E+00
  152     1 H    -4.314883773750E-01  3.018322810559E+00  2.554984952961E+00
  153     1 H     8.200020567770E-01  5.024684972180E-01 -3.975379814573E+00
  154     1 H     5.087702476903E+00 -5.024684972180E-01  4.630201144497E+00
  155     1 H    -5.087702476943E+00  3.108388029912E+00  3.975379814573E+00
  156     1 H    -8.200020567770E-01 -3.108388029912E+00 -4.630201144457E+00
  157     1 H    -8.200020567770E-01 -5.024684972180E-01  3.975379814573E+00
  158     1 H    -5.087702476943E+00  5.024684972180E-01 -4.630201144457E+00
  159     1 H     5.087702476903E+00 -3.108388029912E+00 -3.975379814573E+00
  160     1 H     8.200020567770E-01  3.108388029912E+00  4.630201144497E+00

 *******************************************************************************
 STARTING BASIS SET HANDLING 
 *******************************************************************************

 Loading internal basis set: DEF2-MSVP           

 Please cite in your publication:
 Fully Optimized Contracted Gaussian Basis Sets for Atoms Li to Kr. A. Schfer, H. Horn and R. Ahlrichs; J. Chem. Phys. 97, 2571 (1992).                                                                                                                         
 S. Grimme, J. G. Brandenburg, C. Bannwarth, and A. Hansen, J. Chem. Phys., 143, 054107 (2015).                                                                                                                                                                  

 *******************************************************************************
 LOCAL ATOMIC FUNCTIONS BASIS SET
 *******************************************************************************
   ATOM   X(AU)   Y(AU)   Z(AU)  N. TYPE  EXPONENT  S COEF   P COEF   D/F/G COEF
 *******************************************************************************
   1 O   -5.275   3.366 -12.034
                                  1 S  
                                         6.773E+03 1.727E-03 0.000E+00 0.000E+00
                                         1.017E+03 1.325E-02 0.000E+00 0.000E+00
                                         2.313E+02 6.603E-02 0.000E+00 0.000E+00
                                         6.501E+01 2.353E-01 0.000E+00 0.000E+00
                                         2.050E+01 5.498E-01 0.000E+00 0.000E+00
                                  2 S  
                                         6.716E+00 1.000E+00 0.000E+00 0.000E+00
                                  3 S  
                                         1.147E+00 1.000E+00 0.000E+00 0.000E+00
                                  4 S  
                                         3.342E-01 1.000E+00 0.000E+00 0.000E+00
                           5-     7 P  
                                         1.769E+01 0.000E+00 4.359E-02 0.000E+00
                                         3.854E+00 0.000E+00 2.318E-01 0.000E+00
                                         1.047E+00 0.000E+00 5.146E-01 0.000E+00
                           8-    10 P  
                                         2.759E-01 0.000E+00 1.000E+00 0.000E+00
                          11-    15 D  
                                         8.000E-01 0.000E+00 0.000E+00 1.000E+00
   2 O   -5.888  -3.366   4.229
   3 O    5.888   3.457  12.034
   4 O    5.275  -3.457  -4.229
   5 O    5.275  -3.366  12.034
   6 O    5.888   3.366  -4.229
   7 O   -5.888  -3.457 -12.034
   8 O   -5.275   3.457   4.229
   9 O   -2.378   3.731   0.027
  10 O   -8.786  -3.731 -16.235
  11 O    8.786   3.092  -0.027
  12 O    2.378  -3.092  16.235
  13 O    2.378  -3.731  -0.027
  14 O    8.786   3.731  16.235
  15 O   -8.786  -3.092   0.027
  16 O   -2.378   3.092 -16.235
  17 N    0.324   2.828  -3.166
                                241 S  
                                         5.072E+03 1.707E-03 0.000E+00 0.000E+00
                                         7.614E+02 1.309E-02 0.000E+00 0.000E+00
                                         1.732E+02 6.510E-02 0.000E+00 0.000E+00
                                         4.867E+01 2.305E-01 0.000E+00 0.000E+00
                                         1.533E+01 5.330E-01 0.000E+00 0.000E+00
                                242 S  
                                         5.019E+00 1.000E+00 0.000E+00 0.000E+00
                                243 S  
                                         8.355E-01 1.000E+00 0.000E+00 0.000E+00
                                244 S  
                                         2.463E-01 1.000E+00 0.000E+00 0.000E+00
                         245-   247 P  
                                         1.355E+01 0.000E+00 4.063E-02 0.000E+00
                                         2.918E+00 0.000E+00 2.209E-01 0.000E+00
                                         7.983E-01 0.000E+00 5.186E-01 0.000E+00
                         248-   250 P  
                                         2.190E-01 0.000E+00 1.000E+00 0.000E+00
                         251-   255 D  
                                         8.000E-01 0.000E+00 0.000E+00 1.000E+00
  18 N   10.840  -2.828  13.096
  19 N  -10.840   3.995   3.166
  20 N   -0.324  -3.995 -13.096
  21 N   -0.324  -2.828   3.166
  22 N  -10.840   2.828 -13.096
  23 N   10.840  -3.995  -3.166
  24 N    0.324   3.995  13.096
  25 C   -3.964   3.154  -9.858
                                361 S  
                                         3.624E+03 1.634E-03 0.000E+00 0.000E+00
                                         5.440E+02 1.252E-02 0.000E+00 0.000E+00
                                         1.237E+02 6.211E-02 0.000E+00 0.000E+00
                                         3.476E+01 2.182E-01 0.000E+00 0.000E+00
                                         1.093E+01 4.980E-01 0.000E+00 0.000E+00
                                362 S  
                                         3.574E+00 1.000E+00 0.000E+00 0.000E+00
                                363 S  
                                         5.748E-01 1.000E+00 0.000E+00 0.000E+00
                                364 S  
                                         1.730E-01 1.000E+00 0.000E+00 0.000E+00
                         365-   367 P  
                                         9.443E+00 0.000E+00 3.790E-02 0.000E+00
                                         2.002E+00 0.000E+00 2.082E-01 0.000E+00
                                         5.463E-01 0.000E+00 5.047E-01 0.000E+00
                         368-   370 P  
                                         1.520E-01 0.000E+00 1.000E+00 0.000E+00
                         371-   375 D  
                                         8.000E-01 0.000E+00 0.000E+00 1.000E+00
  26 C   -7.200  -3.154   6.404
  27 C    7.200   3.670   9.858
  28 C    3.964  -3.670  -6.404
  29 C    3.964  -3.154   9.858
  30 C    7.200   3.154  -6.404
  31 C   -7.200  -3.670  -9.858
  32 C   -3.964   3.670   6.404
  33 C   -1.257   2.902  -5.305
  34 C   -9.907  -2.902  10.957
  35 C    9.907   3.922   5.305
  36 C    1.257  -3.922 -10.957
  37 C    1.257  -2.902   5.305
  38 C    9.907   2.902 -10.957
  39 C   -9.907  -3.922  -5.305
  40 C   -1.257   3.922  10.957
  41 C   -3.650   3.995  -5.381
  42 C   -7.514  -3.995  10.881
  43 C    7.514   2.829   5.381
  44 C    3.650  -2.829 -10.881
  45 C    3.650  -3.995   5.381
  46 C    7.514   3.995 -10.881
  47 C   -7.514  -2.829  -5.381
  48 C   -3.650   2.829  10.881
  49 C   -4.984   4.115  -7.636
  50 C   -6.180  -4.115   8.626
  51 C    6.180   2.709   7.636
  52 C    4.984  -2.709  -8.626
  53 C    4.984  -4.115   7.636
  54 C    6.180   4.115  -8.626
  55 C   -6.180  -2.709  -7.636
  56 C   -4.984   2.709   8.626
  57 C    1.987   2.997   1.040
  58 C    9.177  -2.997 -15.222
  59 C   -9.177   3.826  -1.040
  60 C   -1.987  -3.826  15.222
  61 C   -1.987  -2.997  -1.040
  62 C   -9.177   2.997  15.222
  63 C    9.177  -3.826   1.040
  64 C    1.987   3.826 -15.222
  65 C   -1.613   1.980  -9.761
  66 C   -9.551  -1.980   6.501
  67 C    9.551   4.843   9.761
  68 C    1.613  -4.843  -6.501
  69 C    1.613  -1.980   9.761
  70 C    9.551   1.980  -6.501
  71 C   -9.551  -4.843  -9.761
  72 C   -1.613   4.843   6.501
  73 C   -0.238   3.208  -0.722
  74 C  -10.926  -3.208  15.540
  75 C   10.926   3.616   0.722
  76 C    0.238  -3.616 -15.540
  77 C    0.238  -3.208   0.722
  78 C   10.926   3.208 -15.540
  79 C  -10.926  -3.616  -0.722
  80 C   -0.238   3.616  15.540
  81 C   -0.281   1.866  -7.519
  82 C  -10.883  -1.866   8.743
  83 C   10.883   4.957   7.519
  84 C    0.281  -4.957  -8.743
  85 C    0.281  -1.866   7.519
  86 C   10.883   1.866  -8.743
  87 C  -10.883  -4.957  -7.519
  88 C   -0.281   4.957   8.743
  89 H   -4.154   3.133 -13.492
                               1321 S  
                                         1.874E+01 1.968E-02 0.000E+00 0.000E+00
                                         2.826E+00 1.380E-01 0.000E+00 0.000E+00
                                         6.401E-01 4.783E-01 0.000E+00 0.000E+00
                               1322 S  
                                         1.756E-01 1.000E+00 0.000E+00 0.000E+00
  90 H   -7.010  -3.133   2.770
  91 H    7.010   3.690  13.492
  92 H    4.154  -3.690  -2.770
  93 H    4.154  -3.133  13.492
  94 H    7.010   3.133  -2.770
  95 H   -7.010  -3.690 -13.492
  96 H   -4.154   3.690   2.770
  97 H    2.183   2.570  -3.567
  98 H    8.981  -2.570  12.695
  99 H   -8.981   4.254   3.567
 100 H   -2.183  -4.254 -12.695
 101 H   -2.183  -2.570   3.567
 102 H   -8.981   2.570 -12.695
 103 H    8.981  -4.254  -3.567
 104 H    2.183   4.254  12.695
 105 H   -4.485   4.808  -3.712
 106 H   -6.679  -4.808  12.550
 107 H    6.679   2.015   3.712
 108 H    4.485  -2.015 -12.550
 109 H    4.485  -4.808   3.712
 110 H    6.679   4.808 -12.550
 111 H   -6.679  -2.015  -3.712
 112 H   -4.485   2.015  12.550
 113 H   -6.820   5.015  -7.662
 114 H   -4.343  -5.015   8.600
 115 H    4.343   1.809   7.662
 116 H    6.820  -1.809  -8.600
 117 H    6.820  -5.015   7.662
 118 H    4.343   5.015  -8.600
 119 H   -4.343  -1.809  -7.662
 120 H   -6.820   1.809   8.600
 121 H    2.881   4.845   1.244
 122 H    8.283  -4.845 -15.018
 123 H   -8.283   1.979  -1.244
 124 H   -2.881  -1.979  15.018
 125 H   -2.881  -4.845  -1.244
 126 H   -8.283   4.845  15.018
 127 H    8.283  -1.979   1.244
 128 H    2.881   1.979 -15.018
 129 H    3.414   1.683   0.360
 130 H    7.750  -1.683 -15.902
 131 H   -7.750   5.140  -0.360
 132 H   -3.414  -5.140  15.902
 133 H   -3.414  -1.683  -0.360
 134 H   -7.750   1.683  15.902
 135 H    7.750  -5.140   0.360
 136 H    3.414   5.140 -15.902
 137 H    1.368   2.384   2.900
 138 H    9.796  -2.384 -13.362
 139 H   -9.796   4.439  -2.900
 140 H   -1.368  -4.439  13.362
 141 H   -1.368  -2.384  -2.900
 142 H   -9.796   2.384  13.362
 143 H    9.796  -4.439   2.900
 144 H    1.368   4.439 -13.362
 145 H   -0.815   1.120 -11.434
 146 H  -10.349  -1.120   4.828
 147 H   10.349   5.704  11.434
 148 H    0.815  -5.704  -4.828
 149 H    0.815  -1.120  11.434
 150 H   10.349   1.120  -4.828
 151 H  -10.349  -5.704 -11.434
 152 H   -0.815   5.704   4.828
 153 H    1.550   0.950  -7.512
 154 H    9.614  -0.950   8.750
 155 H   -9.614   5.874   7.512
 156 H   -1.550  -5.874  -8.750
 157 H   -1.550  -0.950   7.512
 158 H   -9.614   0.950  -8.750
 159 H    9.614  -5.874  -7.512
 160 H    1.550   5.874   8.750

 *******************************************************************************
 FINISHED BASIS SET HANDLING 
 *******************************************************************************

 INFORMATION **** SET_MPP **** PCRYSTAL CALCULATION
 INFORMATION **** READM2 **** NEW DEFAULT: FOCK/KS MATRIX MIXING SET TO 30 %
 INFORMATION **** READM2 **** NEW DEFAULT: FULL DIRECT SCF MODE
 INFORMATION **** READM2 **** NEW DEFAULT: COULOMB BIPOLAR BUFFER SET TO 32 Mb
 INFORMATION **** READM2 **** NEW DEFAULT: EXCHANGE BIPOLAR BUFFER SET TO 32 Mb

 *******************************************************************************
 NEW DEFAULT: DFT INTEGRATION GRID INCREASED TO XLGRID
 NEW DEFAULT: DIIS ACCELERATOR ACTIVE
 USE KEYWORD NODIIS TO TURN IT OFF
 *******************************************************************************

 INFORMATION **** RDDFTP **** PBEh-3c calculation
 INFORMATION **** RDDFTP **** PBEh hybrid functional combined with D3 and gCP

PLEASE CITE:
(1) PBEh-3c Reference
 S. Grimme, J. G. Brandenburg, C. Bannwarth, and A. Hansen, 
 J. Chem. Phys. 143, 054107 (2015)
(2) DFT-D3 Reference
 S. Grimme, J. Antony, S. Ehrlich, and H. Krieg, J. Chem. Phys. 132, 154104 (2010)
(3) gCP Reference
 H. Kruse and S. Grimme J. Chem. Phys, 136, 154101 (2012)
 J. G. Brandenburg, M. Alessio, B. Civalleri, M. F. Peintinger
 T. Bredow, and S. Grimme, J. Phys. Chem. A, 117, 9282 (2013) 

 WARNING **** RDDFTP **** PBEh-3c has to be combined with def2-mSVP basis set
 WARNING **** RDDFTP **** Note: Harmonic frequencies are scaled by 0.95
 WARNING **** RDDFTP **** as recommended in original publication
 INFORMATION **** TOLDEE **** SCF TOL ON TOTAL ENERGY SET TO           9
 INFORMATION **** TOLINTEG **** COULOMB AND EXCHANGE SERIES TOLERANCES MODIFIED
 INFORMATION **** MAXCYCLE **** MAX NUMBER OF SCF CYCLES SET TO          30
 WARNING **** READM2 **** PROBABLE LOSS IN FREQCALC ACCURACY; SCF TOL LT          10
 *******************************************************************************
 N. OF ATOMS PER CELL       160  COULOMB OVERLAP TOL         (T1) 10**   -8
 NUMBER OF SHELLS           760  COULOMB PENETRATION TOL     (T2) 10**   -8
 NUMBER OF AO              1464  EXCHANGE OVERLAP TOL        (T3) 10**   -8
 N. OF ELECTRONS PER CELL   640  EXCHANGE PSEUDO OVP (F(G))  (T4) 10**   -8
 CORE ELECTRONS PER CELL    176  EXCHANGE PSEUDO OVP (P(G))  (T5) 10**  -24
 N. OF SYMMETRY OPERATORS     8  POLE ORDER IN MONO ZONE                  4
 *******************************************************************************
 TYPE OF CALCULATION :  RESTRICTED CLOSED SHELL
 KOHN-SHAM HAMILTONIAN

 (EXCHANGE)[CORRELATION] FUNCTIONAL:(PBEh-3c)[PBEh-3c]


 HYBRID EXCHANGE - PERCENTAGE OF FOCK EXCHANGE    42.0000

 CAPPA:IS1  4;IS2  4;IS3  2; K PTS MONK NET  18; SYMMOPS:K SPACE   8;G SPACE   8

 *******************************************************************************
 MAX NUMBER OF SCF CYCLES      30  CONVERGENCE ON DELTAP        10**-19
 WEIGHT OF F(I) IN F(I+1)      50% CONVERGENCE ON ENERGY        10**- 9
 SHRINK. FACT.(MONKH.)    4  4  2  NUMBER OF K POINTS IN THE IBZ     18
 SHRINKING FACTOR(GILAT NET)    4  NUMBER OF K POINTS(GILAT NET)     18
 *******************************************************************************
 *** K POINTS COORDINATES (OBLIQUE COORDINATES IN UNITS OF IS =  4)
   1-R(  0  0  0)   2-C(  1  0  0)   3-R(  2  0  0)   4-C(  0  1  0)
   5-C(  1  1  0)   6-C(  2  1  0)   7-R(  0  2  0)   8-C(  1  2  0)
   9-R(  2  2  0)  10-R(  0  0  1)  11-C(  1  0  1)  12-R(  2  0  1)
  13-C(  0  1  1)  14-C(  1  1  1)  15-C(  2  1  1)  16-R(  0  2  1)
  17-C(  1  2  1)  18-R(  2  2  1)

 DIRECT LATTICE VECTORS COMPON. (A.U.)     RECIP. LATTICE VECTORS COMPON. (A.U.) 
        X            Y            Z              X            Y            Z
   22.3278873    0.0000000    0.0000000      0.2814053    0.0000000    0.0000000
    0.0000000   13.6470599    0.0000000      0.0000000    0.4604058    0.0000000
    0.0000000    0.0000000   32.5243825      0.0000000    0.0000000    0.1931838

 DISK SPACE FOR EIGENVECTORS (FTN 10)    60012288 REALS

 SYMMETRY ADAPTION OF THE BLOCH FUNCTIONS ENABLED
 TTTTTTTTTTTTTTTTTTTTTTTTTTTTTT gordsh1     TELAPSE        4.45 TCPU        2.83

 MATRIX SIZE: P(G) 4685064, F(G)  440776, P(G) IRR  297375, F(G) IRR   55827
 MAX G-VECTOR INDEX FOR 1- AND 2-ELECTRON INTEGRALS  83

 TTTTTTTTTTTTTTTTTTTTTTTTTTTTTT INPUT       TELAPSE        4.69 TCPU        3.07

 NEIGHBORS OF THE NON-EQUIVALENT ATOMS

 N = NUMBER OF NEIGHBORS AT DISTANCE R
    ATOM  N     R/ANG      R/AU   NEIGHBORS (ATOM LABELS AND CELL INDICES)
   1 O    1     0.9816     1.8550   89 H    0 0 0
   1 O    1     1.3489     2.5490   25 C    0 0 0
   1 O    1     2.0361     3.8476  102 H    0 0 0
   1 O    1     2.3656     4.4704   49 C    0 0 0
   1 O    1     2.3960     4.5277   65 C    0 0 0
   1 O    1     2.6041     4.9209  113 H    0 0 0

   9 O    1     1.2314     2.3271   73 C    0 0 0
   9 O    1     1.7293     3.2680   96 H    0 0 0
   9 O    1     2.2644     4.2792   17 N    0 0 0
   9 O    1     2.3416     4.4251  105 H    0 0 0
   9 O    1     2.4030     4.5409   57 C    0 0 0
   9 O    1     2.5978     4.9092  137 H    0 0 0

  17 N    1     1.0154     1.9188   97 H    0 0 0
  17 N    1     1.3421     2.5362   73 C    0 0 0
  17 N    1     1.4079     2.6606   33 C    0 0 0
  17 N    1     2.2644     4.2792    9 O    0 0 0
  17 N    1     2.3806     4.4987   81 C    0 0 0
  17 N    1     2.3953     4.5265   57 C    0 0 0

  25 C    1     1.3489     2.5490    1 O    0 0 0
  25 C    1     1.3903     2.6273   49 C    0 0 0
  25 C    1     1.3915     2.6295   65 C    0 0 0
  25 C    1     1.9257     3.6391   89 H    0 0 0
  25 C    1     2.1461     4.0556  113 H    0 0 0
  25 C    1     2.1517     4.0661  145 H    0 0 0

  33 C    1     1.3926     2.6317   81 C    0 0 0
  33 C    1     1.3930     2.6324   41 C    0 0 0
  33 C    1     1.4079     2.6606   17 N    0 0 0
  33 C    1     2.0468     3.8678   97 H    0 0 0
  33 C    1     2.1534     4.0693  153 H    0 0 0
  33 C    1     2.1558     4.0738  105 H    0 0 0

  41 C    1     1.0772     2.0356  105 H    0 0 0
  41 C    1     1.3878     2.6226   49 C    0 0 0
  41 C    1     1.3930     2.6324   33 C    0 0 0
  41 C    1     2.1361     4.0366  113 H    0 0 0
  41 C    1     2.3932     4.5224   81 C    0 0 0
  41 C    1     2.4165     4.5665   25 C    0 0 0

  49 C    1     1.0825     2.0456  113 H    0 0 0
  49 C    1     1.3878     2.6226   41 C    0 0 0
  49 C    1     1.3903     2.6273   25 C    0 0 0
  49 C    1     2.1249     4.0156  105 H    0 0 0
  49 C    1     2.3656     4.4704    1 O    0 0 0
  49 C    1     2.3922     4.5206   65 C    0 0 0

  57 C    1     1.0870     2.0541  137 H    0 0 0
  57 C    1     1.0879     2.0559  129 H    0 0 0
  57 C    1     1.0914     2.0625  121 H    0 0 0
  57 C    1     1.5062     2.8463   73 C    0 0 0
  57 C    1     2.3953     4.5265   17 N    0 0 0
  57 C    1     2.4030     4.5409    9 O    0 0 0

  65 C    1     1.0812     2.0431  145 H    0 0 0
  65 C    1     1.3814     2.6105   81 C    0 0 0
  65 C    1     1.3915     2.6295   25 C    0 0 0
  65 C    1     2.1247     4.0150  153 H    0 0 0
  65 C    1     2.3922     4.5206   49 C    0 0 0
  65 C    1     2.3960     4.5277    1 O    0 0 0

  73 C    1     1.2314     2.3271    9 O    0 0 0
  73 C    1     1.3421     2.5362   17 N    0 0 0
  73 C    1     1.5062     2.8463   57 C    0 0 0
  73 C    1     2.0052     3.7893   97 H    0 0 0
  73 C    1     2.1345     4.0336  121 H    0 0 0
  73 C    1     2.1416     4.0471  137 H    0 0 0

  81 C    1     1.0834     2.0474  153 H    0 0 0
  81 C    1     1.3814     2.6105   65 C    0 0 0
  81 C    1     1.3926     2.6317   33 C    0 0 0
  81 C    1     2.1280     4.0213  145 H    0 0 0
  81 C    1     2.3806     4.4987   17 N    0 0 0
  81 C    1     2.3932     4.5224   41 C    0 0 0

  89 H    1     0.9816     1.8550    1 O    0 0 0
  89 H    1     1.7293     3.2680   16 O    0 0 0
  89 H    1     1.9257     3.6391   25 C    0 0 0
  89 H    1     2.3328     4.4083  145 H    0 0 0
  89 H    1     2.4654     4.6589   65 C    0 0 0
  89 H    1     2.6063     4.9253  102 H    0 0 0

  97 H    1     1.0154     1.9188   17 N    0 0 0
  97 H    1     2.0052     3.7893   73 C    0 0 0
  97 H    1     2.0361     3.8476    6 O    0 0 0
  97 H    1     2.0468     3.8678   33 C    0 0 0
  97 H    1     2.2278     4.2099  129 H    0 0 0
  97 H    1     2.2817     4.3119  153 H    0 0 0

 105 H    1     1.0772     2.0356   41 C    0 0 0
 105 H    1     2.1249     4.0156   49 C    0 0 0
 105 H    1     2.1558     4.0738   33 C    0 0 0
 105 H    1     2.3416     4.4251    9 O    0 0 0
 105 H    1     2.4305     4.5930  113 H    0 0 0
 105 H    1     2.4823     4.6908  131 H    0 0 0

 113 H    1     1.0825     2.0456   49 C    0 0 0
 113 H    1     2.1361     4.0366   41 C    0 0 0
 113 H    1     2.1461     4.0556   25 C    0 0 0
 113 H    1     2.4305     4.5930  105 H    0 0 0
 113 H    1     2.6041     4.9209    1 O    0 0 0
 113 H    1     2.6730     5.0513  158 H    0 0 0

 121 H    1     1.0914     2.0625   57 C    0 0 0
 121 H    1     1.7602     3.3262  129 H    0 0 0
 121 H    1     1.7621     3.3300  137 H    0 0 0
 121 H    1     2.1345     4.0336   73 C    0 0 0
 121 H    1     2.6256     4.9616  109 H    0 1 0
 121 H    1     2.7622     5.2198  152 H    0 0 0

 129 H    1     1.0879     2.0559   57 C    0 0 0
 129 H    1     1.7602     3.3262  121 H    0 0 0
 129 H    1     1.7659     3.3371  137 H    0 0 0
 129 H    1     2.1711     4.1029   73 C    0 0 0
 129 H    1     2.2278     4.2099   97 H    0 0 0
 129 H    1     2.4823     4.6908  107 H    0 0 0

 137 H    1     1.0870     2.0541   57 C    0 0 0
 137 H    1     1.7621     3.3300  121 H    0 0 0
 137 H    1     1.7659     3.3371  129 H    0 0 0
 137 H    1     2.1416     4.0471   73 C    0 0 0
[...]
Note: The following floating-point exceptions are signalling: IEEE_UNDERFLOW_FLAG IEEE_DENORMAL
Note: The following floating-point exceptions are signalling: IEEE_UNDERFLOW_FLAG IEEE_DENORMAL
Note: The following floating-point exceptions are signalling: IEEE_UNDERFLOW_FLAG IEEE_DENORMAL
Note: The following floating-point exceptions are signalling: IEEE_UNDERFLOW_FLAG IEEE_DENORMAL
Note: The following floating-point exceptions are signalling: IEEE_UNDERFLOW_FLAG IEEE_DENORMAL
Note: The following floating-point exceptions are signalling: IEEE_UNDERFLOW_FLAG IEEE_DENORMAL
Note: The following floating-point exceptions are signalling: IEEE_UNDERFLOW_FLAG IEEE_DENORMAL
Note: The following floating-point exceptions are signalling: IEEE_UNDERFLOW_FLAG IEEE_DENORMAL
Note: The following floating-point exceptions are signalling: IEEE_UNDERFLOW_FLAG IEEE_DENORMAL
Note: The following floating-point exceptions are signalling: IEEE_UNDERFLOW_FLAG IEEE_DENORMAL
Note: The following floating-point exceptions are signalling: IEEE_UNDERFLOW_FLAG IEEE_DENORMAL
Note: The following floating-point exceptions are signalling: IEEE_UNDERFLOW_FLAG IEEE_DENORMAL
Note: The following floating-point exceptions are signalling: IEEE_UNDERFLOW_FLAG IEEE_DENORMAL
Note: The following floating-point exceptions are signalling: IEEE_UNDERFLOW_FLAG IEEE_DENORMAL
Note: The following floating-point exceptions are signalling: IEEE_UNDERFLOW_FLAG IEEE_DENORMAL
Note: The following floating-point exceptions are signalling: IEEE_UNDERFLOW_FLAG IEEE_DENORMAL
Note: The following floating-point exceptions are signalling: IEEE_UNDERFLOW_FLAG IEEE_DENORMAL
Note: The following floating-point exceptions are signalling: IEEE_UNDERFLOW_FLAG IEEE_DENORMAL
Note: The following floating-point exceptions are signalling: IEEE_UNDERFLOW_FLAG IEEE_DENORMAL
Note: The following floating-point exceptions are signalling: IEEE_UNDERFLOW_FLAG IEEE_DENORMAL
Note: The following floating-point exceptions are signalling: IEEE_UNDERFLOW_FLAG IEEE_DENORMAL
Note: The following floating-point exceptions are signalling: IEEE_UNDERFLOW_FLAG IEEE_DENORMAL
Note: The following floating-point exceptions are signalling: IEEE_UNDERFLOW_FLAG IEEE_DENORMAL
Note: The following floating-point exceptions are signalling: IEEE_UNDERFLOW_FLAG IEEE_DENORMAL
Note: The following floating-point exceptions are signalling: IEEE_UNDERFLOW_FLAG IEEE_DENORMAL
Note: The following floating-point exceptions are signalling: IEEE_UNDERFLOW_FLAG IEEE_DENORMAL
Note: The following floating-point exceptions are signalling: IEEE_UNDERFLOW_FLAG IEEE_DENORMAL
Note: The following floating-point exceptions are signalling: IEEE_UNDERFLOW_FLAG IEEE_DENORMAL
Note: The following floating-point exceptions are signalling: IEEE_UNDERFLOW_FLAG IEEE_DENORMAL
Note: The following floating-point exceptions are signalling: IEEE_UNDERFLOW_FLAG IEEE_DENORMAL
Note: The following floating-point exceptions are signalling: IEEE_UNDERFLOW_FLAG IEEE_DENORMAL
Note: The following floating-point exceptions are signalling: IEEE_UNDERFLOW_FLAG IEEE_DENORMAL
Note: The following floating-point exceptions are signalling: IEEE_UNDERFLOW_FLAG IEEE_DENORMAL
Note: The following floating-point exceptions are signalling: IEEE_UNDERFLOW_FLAG IEEE_DENORMAL
Note: The following floating-point exceptions are signalling: IEEE_UNDERFLOW_FLAG IEEE_DENORMAL
Note: The following floating-point exceptions are signalling: IEEE_UNDERFLOW_FLAG IEEE_DENORMAL
Note: The following floating-point exceptions are signalling: IEEE_UNDERFLOW_FLAG IEEE_DENORMAL
Note: The following floating-point exceptions are signalling: IEEE_UNDERFLOW_FLAG IEEE_DENORMAL
Note: The following floating-point exceptions are signalling: IEEE_UNDERFLOW_FLAG IEEE_DENORMAL
Note: The following floating-point exceptions are signalling: IEEE_UNDERFLOW_FLAG IEEE_DENORMAL
Note: The following floating-point exceptions are signalling: IEEE_UNDERFLOW_FLAG IEEE_DENORMAL
Note: The following floating-point exceptions are signalling: IEEE_UNDERFLOW_FLAG IEEE_DENORMAL
Note: The following floating-point exceptions are signalling: IEEE_UNDERFLOW_FLAG IEEE_DENORMAL
Note: The following floating-point exceptions are signalling: IEEE_UNDERFLOW_FLAG IEEE_DENORMAL
Note: The following floating-point exceptions are signalling: IEEE_UNDERFLOW_FLAG IEEE_DENORMAL
Note: The following floating-point exceptions are signalling: IEEE_UNDERFLOW_FLAG IEEE_DENORMAL
Note: The following floating-point exceptions are signalling: IEEE_UNDERFLOW_FLAG IEEE_DENORMAL
Note: The following floating-point exceptions are signalling: IEEE_UNDERFLOW_FLAG IEEE_DENORMAL
Note: The following floating-point exceptions are signalling: IEEE_UNDERFLOW_FLAG IEEE_DENORMAL
Note: The following floating-point exceptions are signalling: IEEE_UNDERFLOW_FLAG IEEE_DENORMAL
Note: The following floating-point exceptions are signalling: IEEE_UNDERFLOW_FLAG IEEE_DENORMAL
Note: The following floating-point exceptions are signalling: IEEE_UNDERFLOW_FLAG IEEE_DENORMAL
Note: The following floating-point exceptions are signalling: IEEE_UNDERFLOW_FLAG IEEE_DENORMAL
Note: The following floating-point exceptions are signalling: IEEE_UNDERFLOW_FLAG IEEE_DENORMAL
Note: The following floating-point exceptions are signalling: IEEE_UNDERFLOW_FLAG IEEE_DENORMAL
Note: The following floating-point exceptions are signalling: IEEE_UNDERFLOW_FLAG IEEE_DENORMAL
Note: The following floating-point exceptions are signalling: IEEE_UNDERFLOW_FLAG IEEE_DENORMAL
Note: The following floating-point exceptions are signalling: IEEE_UNDERFLOW_FLAG IEEE_DENORMAL
Note: The following floating-point exceptions are signalling: IEEE_UNDERFLOW_FLAG IEEE_DENORMAL
Note: The following floating-point exceptions are signalling: IEEE_UNDERFLOW_FLAG IEEE_DENORMAL
Note: The following floating-point exceptions are signalling: IEEE_UNDERFLOW_FLAG IEEE_DENORMAL
Note: The following floating-point exceptions are signalling: IEEE_UNDERFLOW_FLAG IEEE_DENORMAL
Note: The following floating-point exceptions are signalling: IEEE_UNDERFLOW_FLAG IEEE_DENORMAL
Note: The following floating-point exceptions are signalling: IEEE_UNDERFLOW_FLAG IEEE_DENORMAL
Note: The following floating-point exceptions are signalling: IEEE_UNDERFLOW_FLAG IEEE_DENORMAL
Note: The following floating-point exceptions are signalling: IEEE_UNDERFLOW_FLAG IEEE_DENORMAL
Note: The following floating-point exceptions are signalling: IEEE_UNDERFLOW_FLAG IEEE_DENORMAL
Note: The following floating-point exceptions are signalling: IEEE_UNDERFLOW_FLAG IEEE_DENORMAL
Note: The following floating-point exceptions are signalling: IEEE_UNDERFLOW_FLAG IEEE_DENORMAL
Note: The following floating-point exceptions are signalling: IEEE_UNDERFLOW_FLAG IEEE_DENORMAL
Note: The following floating-point exceptions are signalling: IEEE_UNDERFLOW_FLAG IEEE_DENORMAL
Note: The following floating-point exceptions are signalling: IEEE_UNDERFLOW_FLAG IEEE_DENORMAL
Note: The following floating-point exceptions are signalling: IEEE_UNDERFLOW_FLAG IEEE_DENORMAL
Note: The following floating-point exceptions are signalling: IEEE_UNDERFLOW_FLAG IEEE_DENORMAL
Note: The following floating-point exceptions are signalling: IEEE_UNDERFLOW_FLAG IEEE_DENORMAL
Note: The following floating-point exceptions are signalling: IEEE_UNDERFLOW_FLAG IEEE_DENORMAL
Note: The following floating-point exceptions are signalling: IEEE_UNDERFLOW_FLAG IEEE_DENORMAL
Note: The following floating-point exceptions are signalling: IEEE_UNDERFLOW_FLAG IEEE_DENORMAL
Note: The following floating-point exceptions are signalling: IEEE_UNDERFLOW_FLAG IEEE_DENORMAL
Note: The following floating-point exceptions are signalling: IEEE_UNDERFLOW_FLAG IEEE_DENORMAL
Note: The following floating-point exceptions are signalling: IEEE_UNDERFLOW_FLAG IEEE_DENORMAL
Note: The following floating-point exceptions are signalling: IEEE_UNDERFLOW_FLAG IEEE_DENORMAL
Note: The following floating-point exceptions are signalling: IEEE_UNDERFLOW_FLAG IEEE_DENORMAL
Note: The following floating-point exceptions are signalling: IEEE_UNDERFLOW_FLAG IEEE_DENORMAL
Note: The following floating-point exceptions are signalling: IEEE_UNDERFLOW_FLAG IEEE_DENORMAL
Note: The following floating-point exceptions are signalling: IEEE_UNDERFLOW_FLAG IEEE_DENORMAL
Note: The following floating-point exceptions are signalling: IEEE_UNDERFLOW_FLAG IEEE_DENORMAL
Note: The following floating-point exceptions are signalling: IEEE_UNDERFLOW_FLAG IEEE_DENORMAL
Note: The following floating-point exceptions are signalling: IEEE_UNDERFLOW_FLAG IEEE_DENORMAL
Note: The following floating-point exceptions are signalling: IEEE_UNDERFLOW_FLAG IEEE_DENORMAL
Note: The following floating-point exceptions are signalling: IEEE_UNDERFLOW_FLAG IEEE_DENORMAL
Note: The following floating-point exceptions are signalling: IEEE_UNDERFLOW_FLAG IEEE_DENORMAL
Note: The following floating-point exceptions are signalling: IEEE_UNDERFLOW_FLAG IEEE_DENORMAL
Note: The following floating-point exceptions are signalling: IEEE_UNDERFLOW_FLAG IEEE_DENORMAL
Note: The following floating-point exceptions are signalling: IEEE_UNDERFLOW_FLAG IEEE_DENORMAL
Note: The following floating-point exceptions are signalling: IEEE_UNDERFLOW_FLAG IEEE_DENORMAL
Note: The following floating-point exceptions are signalling: IEEE_UNDERFLOW_FLAG IEEE_DENORMAL
Note: The following floating-point exceptions are signalling: IEEE_UNDERFLOW_FLAG IEEE_DENORMAL
Note: The following floating-point exceptions are signalling: IEEE_UNDERFLOW_FLAG IEEE_DENORMAL
Note: The following floating-point exceptions are signalling: IEEE_UNDERFLOW_FLAG IEEE_DENORMAL
Note: The following floating-point exceptions are signalling: IEEE_UNDERFLOW_FLAG IEEE_DENORMAL
Note: The following floating-point exceptions are signalling: IEEE_UNDERFLOW_FLAG IEEE_DENORMAL
Note: The following floating-point exceptions are signalling: IEEE_UNDERFLOW_FLAG IEEE_DENORMAL
Note: The following floating-point exceptions are signalling: IEEE_UNDERFLOW_FLAG IEEE_DENORMAL
Note: The following floating-point exceptions are signalling: IEEE_UNDERFLOW_FLAG IEEE_DENORMAL
Note: The following floating-point exceptions are signalling: IEEE_UNDERFLOW_FLAG IEEE_DENORMAL
Note: The following floating-point exceptions are signalling: IEEE_UNDERFLOW_FLAG IEEE_DENORMAL
Note: The following floating-point exceptions are signalling: IEEE_UNDERFLOW_FLAG IEEE_DENORMAL
Note: The following floating-point exceptions are signalling: IEEE_UNDERFLOW_FLAG IEEE_DENORMAL
Note: The following floating-point exceptions are signalling: IEEE_UNDERFLOW_FLAG IEEE_DENORMAL
Note: The following floating-point exceptions are signalling: IEEE_UNDERFLOW_FLAG IEEE_DENORMAL
Note: The following floating-point exceptions are signalling: IEEE_UNDERFLOW_FLAG IEEE_DENORMAL
Note: The following floating-point exceptions are signalling: IEEE_UNDERFLOW_FLAG IEEE_DENORMAL
Note: The following floating-point exceptions are signalling: IEEE_UNDERFLOW_FLAG IEEE_DENORMAL
Note: The following floating-point exceptions are signalling: IEEE_UNDERFLOW_FLAG IEEE_DENORMAL
Note: The following floating-point exceptions are signalling: IEEE_UNDERFLOW_FLAG IEEE_DENORMAL
Note: The following floating-point exceptions are signalling: IEEE_UNDERFLOW_FLAG IEEE_DENORMAL
Note: The following floating-point exceptions are signalling: IEEE_UNDERFLOW_FLAG IEEE_DENORMAL
Note: The following floating-point exceptions are signalling: IEEE_UNDERFLOW_FLAG IEEE_DENORMAL
Note: The following floating-point exceptions are signalling: IEEE_UNDERFLOW_FLAG IEEE_DENORMAL
Note: The following floating-point exceptions are signalling: IEEE_UNDERFLOW_FLAG IEEE_DENORMAL
Note: The following floating-point exceptions are signalling: IEEE_UNDERFLOW_FLAG IEEE_DENORMAL
Note: The following floating-point exceptions are signalling: IEEE_UNDERFLOW_FLAG IEEE_DENORMAL
Note: The following floating-point exceptions are signalling: IEEE_UNDERFLOW_FLAG IEEE_DENORMAL
Note: The following floating-point exceptions are signalling: IEEE_UNDERFLOW_FLAG IEEE_DENORMAL
Note: The following floating-point exceptions are signalling: IEEE_UNDERFLOW_FLAG IEEE_DENORMAL
Note: The following floating-point exceptions are signalling: IEEE_UNDERFLOW_FLAG IEEE_DENORMAL
Note: The following floating-point exceptions are signalling: IEEE_UNDERFLOW_FLAG IEEE_DENORMAL
Note: The following floating-point exceptions are signalling: IEEE_UNDERFLOW_FLAG IEEE_DENORMAL
Note: The following floating-point exceptions are signalling: IEEE_UNDERFLOW_FLAG IEEE_DENORMAL
Note: The following floating-point exceptions are signalling: IEEE_UNDERFLOW_FLAG IEEE_DENORMAL
Note: The following floating-point exceptions are signalling: IEEE_UNDERFLOW_FLAG IEEE_DENORMAL
Note: The following floating-point exceptions are signalling: IEEE_UNDERFLOW_FLAG IEEE_DENORMAL
Note: The following floating-point exceptions are signalling: IEEE_UNDERFLOW_FLAG IEEE_DENORMAL
Note: The following floating-point exceptions are signalling: IEEE_UNDERFLOW_FLAG IEEE_DENORMAL
Note: The following floating-point exceptions are signalling: IEEE_UNDERFLOW_FLAG IEEE_DENORMAL
Note: The following floating-point exceptions are signalling: IEEE_UNDERFLOW_FLAG IEEE_DENORMAL
Note: The following floating-point exceptions are signalling: IEEE_UNDERFLOW_FLAG IEEE_DENORMAL
Note: The following floating-point exceptions are signalling: IEEE_UNDERFLOW_FLAG IEEE_DENORMAL
Note: The following floating-point exceptions are signalling: IEEE_UNDERFLOW_FLAG IEEE_DENORMAL
Note: The following floating-point exceptions are signalling: IEEE_UNDERFLOW_FLAG IEEE_DENORMAL
Note: The following floating-point exceptions are signalling: IEEE_UNDERFLOW_FLAG IEEE_DENORMAL
Note: The following floating-point exceptions are signalling: IEEE_UNDERFLOW_FLAG IEEE_DENORMAL
Note: The following floating-point exceptions are signalling: IEEE_UNDERFLOW_FLAG IEEE_DENORMAL
Note: The following floating-point exceptions are signalling: IEEE_UNDERFLOW_FLAG IEEE_DENORMAL
Note: The following floating-point exceptions are signalling: IEEE_UNDERFLOW_FLAG IEEE_DENORMAL
Note: The following floating-point exceptions are signalling: IEEE_UNDERFLOW_FLAG IEEE_DENORMAL
Note: The following floating-point exceptions are signalling: IEEE_UNDERFLOW_FLAG IEEE_DENORMAL
Note: The following floating-point exceptions are signalling: IEEE_UNDERFLOW_FLAG IEEE_DENORMAL
Note: The following floating-point exceptions are signalling: IEEE_UNDERFLOW_FLAG IEEE_DENORMAL
Note: The following floating-point exceptions are signalling: IEEE_UNDERFLOW_FLAG IEEE_DENORMAL
Note: The following floating-point exceptions are signalling: IEEE_UNDERFLOW_FLAG IEEE_DENORMAL
Note: The following floating-point exceptions are signalling: IEEE_UNDERFLOW_FLAG IEEE_DENORMAL
Note: The following floating-point exceptions are signalling: IEEE_UNDERFLOW_FLAG IEEE_DENORMAL
Note: The following floating-point exceptions are signalling: IEEE_UNDERFLOW_FLAG IEEE_DENORMAL
Note: The following floating-point exceptions are signalling: IEEE_UNDERFLOW_FLAG IEEE_DENORMAL
Note: The following floating-point exceptions are signalling: IEEE_UNDERFLOW_FLAG IEEE_DENORMAL
Note: The following floating-point exceptions are signalling: IEEE_UNDERFLOW_FLAG IEEE_DENORMAL
Note: The following floating-point exceptions are signalling: IEEE_UNDERFLOW_FLAG IEEE_DENORMAL
Note: The following floating-point exceptions are signalling: IEEE_UNDERFLOW_FLAG IEEE_DENORMAL
Note: The following floating-point exceptions are signalling: IEEE_UNDERFLOW_FLAG IEEE_DENORMAL
Note: The following floating-point exceptions are signalling: IEEE_UNDERFLOW_FLAG IEEE_DENORMAL
Note: The following floating-point exceptions are signalling: IEEE_UNDERFLOW_FLAG IEEE_DENORMAL
Note: The following floating-point exceptions are signalling: IEEE_UNDERFLOW_FLAG IEEE_DENORMAL
Note: The following floating-point exceptions are signalling: IEEE_UNDERFLOW_FLAG IEEE_DENORMAL
Note: The following floating-point exceptions are signalling: IEEE_UNDERFLOW_FLAG IEEE_DENORMAL
Note: The following floating-point exceptions are signalling: IEEE_UNDERFLOW_FLAG IEEE_DENORMAL
Note: The following floating-point exceptions are signalling: IEEE_UNDERFLOW_FLAG IEEE_DENORMAL
Note: The following floating-point exceptions are signalling: IEEE_UNDERFLOW_FLAG IEEE_DENORMAL
Note: The following floating-point exceptions are signalling: IEEE_UNDERFLOW_FLAG IEEE_DENORMAL
Note: The following floating-point exceptions are signalling: IEEE_UNDERFLOW_FLAG IEEE_DENORMAL
Note: The following floating-point exceptions are signalling: IEEE_UNDERFLOW_FLAG IEEE_DENORMAL
Note: The following floating-point exceptions are signalling: IEEE_UNDERFLOW_FLAG IEEE_DENORMAL
Note: The following floating-point exceptions are signalling: IEEE_UNDERFLOW_FLAG IEEE_DENORMAL
Note: The following floating-point exceptions are signalling: IEEE_UNDERFLOW_FLAG IEEE_DENORMAL
Note: The following floating-point exceptions are signalling: IEEE_UNDERFLOW_FLAG IEEE_DENORMAL
Note: The following floating-point exceptions are signalling: IEEE_UNDERFLOW_FLAG IEEE_DENORMAL
Note: The following floating-point exceptions are signalling: IEEE_UNDERFLOW_FLAG IEEE_DENORMAL
Note: The following floating-point exceptions are signalling: IEEE_UNDERFLOW_FLAG IEEE_DENORMAL
Note: The following floating-point exceptions are signalling: IEEE_UNDERFLOW_FLAG IEEE_DENORMAL
Note: The following floating-point exceptions are signalling: IEEE_UNDERFLOW_FLAG IEEE_DENORMAL
Note: The following floating-point exceptions are signalling: IEEE_UNDERFLOW_FLAG IEEE_DENORMAL
Note: The following floating-point exceptions are signalling: IEEE_UNDERFLOW_FLAG IEEE_DENORMAL
Note: The following floating-point exceptions are signalling: IEEE_UNDERFLOW_FLAG IEEE_DENORMAL
Note: The following floating-point exceptions are signalling: IEEE_UNDERFLOW_FLAG IEEE_DENORMAL
Note: The following floating-point exceptions are signalling: IEEE_UNDERFLOW_FLAG IEEE_DENORMAL
Note: The following floating-point exceptions are signalling: IEEE_UNDERFLOW_FLAG IEEE_DENORMAL
Note: The following floating-point exceptions are signalling: IEEE_UNDERFLOW_FLAG IEEE_DENORMAL
Note: The following floating-point exceptions are signalling: IEEE_UNDERFLOW_FLAG IEEE_DENORMAL
Note: The following floating-point exceptions are signalling: IEEE_UNDERFLOW_FLAG IEEE_DENORMAL
Note: The following floating-point exceptions are signalling: IEEE_UNDERFLOW_FLAG IEEE_DENORMAL
Note: The following floating-point exceptions are signalling: IEEE_UNDERFLOW_FLAG IEEE_DENORMAL
Note: The following floating-point exceptions are signalling: IEEE_UNDERFLOW_FLAG IEEE_DENORMAL
Note: The following floating-point exceptions are signalling: IEEE_UNDERFLOW_FLAG IEEE_DENORMAL
Note: The following floating-point exceptions are signalling: IEEE_UNDERFLOW_FLAG IEEE_DENORMAL
Note: The following floating-point exceptions are signalling: IEEE_UNDERFLOW_FLAG IEEE_DENORMAL
Note: The following floating-point exceptions are signalling: IEEE_UNDERFLOW_FLAG IEEE_DENORMAL
Note: The following floating-point exceptions are signalling: IEEE_UNDERFLOW_FLAG IEEE_DENORMAL
Note: The following floating-point exceptions are signalling: IEEE_UNDERFLOW_FLAG IEEE_DENORMAL
Note: The following floating-point exceptions are signalling: IEEE_UNDERFLOW_FLAG IEEE_DENORMAL
Note: The following floating-point exceptions are signalling: IEEE_UNDERFLOW_FLAG IEEE_DENORMAL
Note: The following floating-point exceptions are signalling: IEEE_UNDERFLOW_FLAG IEEE_DENORMAL
Note: The following floating-point exceptions are signalling: IEEE_UNDERFLOW_FLAG IEEE_DENORMAL
Note: The following floating-point exceptions are signalling: IEEE_UNDERFLOW_FLAG IEEE_DENORMAL
Note: The following floating-point exceptions are signalling: IEEE_UNDERFLOW_FLAG IEEE_DENORMAL
Note: The following floating-point exceptions are signalling: IEEE_UNDERFLOW_FLAG IEEE_DENORMAL
Note: The following floating-point exceptions are signalling: IEEE_UNDERFLOW_FLAG IEEE_DENORMAL
mv: cannot stat 'slurm-1209449.out': No such file or directory
