date:                Thu  9 Feb 18:11:11 GMT 2023
hostname:            nhpc101
system:              Linux nhpc101 5.3.18-150300.59.76-default #1 SMP Thu Jun 16 04:23:47 UTC 2022 (2cc2ade) x86_64 x86_64 x86_64 GNU/Linux
user:                huanyu
input:               /home/huanyu/Desktop/form1-expt.d12
output:              /home/huanyu/Desktop/form1-expt.out
executable script:   
executable:          Pcrystal
module:              module load CRYSTAL/17v2-gnu
Command:             mpiexec -np 2 Pcrystal
temporary directory: /home/huanyu/Desktop/tmp_form1-expt      
input data /home/huanyu/Desktop/form1-expt.d12
F1 Geom_opt - PBEh-3c
CRYSTAL
0 0 0
14
7.073 9.166 12.667 115.51
20
8  0.05870  0.42489  0.72189
8  0.45550 -0.00741  0.30854
7  0.78771  0.05016  0.33911
6  0.85040  0.14210  0.43813
6  0.75680  0.14242  0.51474 
6  0.82960  0.23794  0.60996
6 -0.00430  0.33162  0.62922
6  0.09210  0.32908  0.55399
6  0.01940  0.23440  0.45894
6  0.60170 -0.01599  0.28025
6  0.58320  0.89631  0.17560
1  0.62840  0.07020  0.50120
1  0.75780  0.23660  0.66960
1  0.22340  0.40000  0.56910
1  0.09230  0.23360  0.39950
1  0.20010  0.46470  0.74240
1  0.89180  0.04070  0.30490
1  0.43160 -0.08530  0.10390 
1  0.70610 -0.07980  0.14990 
1  0.59140  0.78090  0.19770
ATOMORDE
TESTGEOM
ENDGEOM
 PROCESS            1  OF            2  WORKING
 PROCESS            0  OF            2  WORKING

         
 *******************************************************************************
 *                                                                             *
 *                               CRYSTAL17                                     *
 *                      public : 1.0.2 - March 1st, 2018                       *
 *                       HTTP://WWW.CRYSTAL.UNITO.IT                           *
 *                                                                             *
 *                              MAIN AUTHORS                                   *
 *                                                                             *
 *  R. DOVESI(1,11), V.R. SAUNDERS(2), C. ROETTI(1,11), R. ORLANDO(1,11),      *
 *  C.M. ZICOVICH-WILSON(1,3), F. PASCALE(4), B. CIVALLERI(1,11),              *
 *  K. DOLL(5), N.M. HARRISON(2,6), I.J. BUSH(7), Ph. D'ARCO(8),               *
 *  M. LLUNELL(9), M. CAUSA'(10), Y. NOEL(8), L. MASCHIO(1,11), A. ERBA(1,11)  *
 *  M. RE'RAT(14), S. CASASSA(1,11)                                            *
 *                                                                             *
 *        CONTRIBUTIONS TO THE CODE HAVE ALSO BEEN GIVEN BY                    *
 *                                                                             *
 *  M. FERRABONE(1,11), M. DE LA PIERRE(1,11), M. FERRERO(1,11),               *
 *  J. BAIMA(1,11), E. ALBANESE(1,11), M.F. PEINTINGER(12), R. BAST(13),       *
 *  B. KIRTMAN(15), V. LACIVITA(1,11), R. DEMICHELIS(1,16)                     *
 *  G. BRANDEBURG(17), S. SALUSTRO(1,11), G. SANSONE(1,11)                     *
 *  M.T. RUGGIERO(18)                                                          *
 *                                                                             *
 * (1) THEORETICAL CHEMISTRY GROUP - UNIVERSITA' DI TORINO - TORINO (ITALY)    *
 * (2) COMPUTATIONAL SCIENCE & ENGINEERING DEPARTMENT - STFC DARESBURY (UK)    *
 * (3) UNIVERSIDAD AUTONOMA DEL ESTADO DE MORELOS - CUERNAVACA (MEXICO)        *
 * (4) UNIVERSITE' DE LORRAINE - NANCY (FRANCE)                                *
 * (5) UNIVERSITAET STUTTGART- STUTTGART (GERMANY)                             *
 * (6) IMPERIAL COLLEGE - LONDON (UK)                                          *
 * (7) OXFORD E-RESEARCH CENTRE - OXFORD (UK)                                  *
 * (8) UPMC - SORBONNE UNIVERSITES - PARIS (FRANCE)                            *
 * (9) UNIVERSIDAD DE BARCELONA - BARCELONA (SPAIN)                            *
 *(10) UNIVERSITA' DI NAPOLI "FEDERICO II" - NAPOLI (ITALY)                    *
 *(11) NIS - NANOSTRUCTURED INTERFACES AND SURFACES - TORINO (ITALY)           *
 *(12) MPI FUER CHEMISCHE ENERGIEKONVERSION - MUELHEIM AN DER RUHR (GERMANY)   *
 *(13) UNIVERSITY OF TROMSO - TROMSO (NORWAY)                                  *
 *(14) UNIVERSITE' DE PAU ET DES PAYS DE L'ADOUR - PAU (FRANCE)                *
 *(15) UNIVERSITY OF CALIFORNIA SANTA BARBARA - SANTA BARBARA (USA)            *
 *(16) CURTIN UNIVERSITY - PERTH (AUSTRALIA)                                   *
 *(17) UNIVERSITY COLLEGE LONDON - LONDON (UK)                                 *
 *(18) CAMBRIDGE UNIVERSITY - CAMBRIDGE (UK)                                   *
 *                                                                             *
 *******************************************************************************
 EEEEEEEEEE STARTING  DATE 09 02 2023 TIME 18:11:11.3
 F1 Geom_opt - PBEh-3c                                                           

 CRYSTAL CALCULATION
 (INPUT ACCORDING TO THE INTERNATIONAL TABLES FOR X-RAY CRYSTALLOGRAPHY)
 CRYSTAL FAMILY                       :  MONOCLINIC  
 CRYSTAL CLASS  (GROTH - 1921)        :  MONOCLINIC PRISMATIC                 

 SPACE GROUP (CENTROSYMMETRIC)        :  P 21/C          

 LATTICE PARAMETERS  (ANGSTROMS AND DEGREES) - CONVENTIONAL CELL
        A           B           C        ALPHA        BETA       GAMMA
     7.07300     9.16600    12.66700    90.00000   115.51000    90.00000


 NUMBER OF IRREDUCIBLE ATOMS IN THE CONVENTIONAL CELL:   20

 INPUT COORDINATES

 ATOM AT. N.              COORDINATES
   1   8     5.870000000000E-02  4.248900000000E-01  7.218900000000E-01
   2   8     4.555000000000E-01 -7.410000000000E-03  3.085400000000E-01
   3   7     7.877100000000E-01  5.016000000000E-02  3.391100000000E-01
   4   6     8.504000000000E-01  1.421000000000E-01  4.381300000000E-01
   5   6     7.568000000000E-01  1.424200000000E-01  5.147400000000E-01
   6   6     8.296000000000E-01  2.379400000000E-01  6.099600000000E-01
   7   6    -4.300000000000E-03  3.316200000000E-01  6.292200000000E-01
   8   6     9.210000000000E-02  3.290800000000E-01  5.539900000000E-01
   9   6     1.940000000000E-02  2.344000000000E-01  4.589400000000E-01
  10   6     6.017000000000E-01 -1.599000000000E-02  2.802500000000E-01
  11   6     5.832000000000E-01  8.963100000000E-01  1.756000000000E-01
  12   1     6.284000000000E-01  7.020000000000E-02  5.012000000000E-01
  13   1     7.578000000000E-01  2.366000000000E-01  6.696000000000E-01
  14   1     2.234000000000E-01  4.000000000000E-01  5.691000000000E-01
  15   1     9.230000000000E-02  2.336000000000E-01  3.995000000000E-01
  16   1     2.001000000000E-01  4.647000000000E-01  7.424000000000E-01
  17   1     8.918000000000E-01  4.070000000000E-02  3.049000000000E-01
  18   1     4.316000000000E-01 -8.530000000000E-02  1.039000000000E-01
  19   1     7.061000000000E-01 -7.980000000000E-02  1.499000000000E-01
  20   1     5.914000000000E-01  7.809000000000E-01  1.977000000000E-01

 *******************************************************************************

 << INFORMATION >>: FROM NOW ON, ALL COORDINATES REFER TO THE PRIMITIVE CELL

 *******************************************************************************

 LATTICE PARAMETERS  (ANGSTROMS AND DEGREES) - PRIMITIVE CELL
       A          B          C        ALPHA      BETA     GAMMA        VOLUME
    7.07300    9.16600   12.66700    90.00000 115.51000  90.00000    741.155555

 COORDINATES OF THE EQUIVALENT ATOMS (FRACTIONAL UNITS)

 N. ATOM EQUIV AT. N.          X                  Y                  Z

   1   1   1    8 O     5.87000000000E-02  4.24890000000E-01 -2.78110000000E-01
   2   1   2    8 O    -5.87000000000E-02 -7.51100000000E-02 -2.21890000000E-01
   3   1   3    8 O    -5.87000000000E-02 -4.24890000000E-01  2.78110000000E-01
   4   1   4    8 O     5.87000000000E-02  7.51100000000E-02  2.21890000000E-01

   5   2   1    8 O     4.55500000000E-01 -7.41000000000E-03  3.08540000000E-01
   6   2   2    8 O    -4.55500000000E-01  4.92590000000E-01  1.91460000000E-01
   7   2   3    8 O    -4.55500000000E-01  7.41000000000E-03 -3.08540000000E-01
   8   2   4    8 O     4.55500000000E-01 -4.92590000000E-01 -1.91460000000E-01

   9   3   1    7 N    -2.12290000000E-01  5.01600000000E-02  3.39110000000E-01
  10   3   2    7 N     2.12290000000E-01 -4.49840000000E-01  1.60890000000E-01
  11   3   3    7 N     2.12290000000E-01 -5.01600000000E-02 -3.39110000000E-01
  12   3   4    7 N    -2.12290000000E-01  4.49840000000E-01 -1.60890000000E-01

  13   4   1    6 C    -1.49600000000E-01  1.42100000000E-01  4.38130000000E-01
  14   4   2    6 C     1.49600000000E-01 -3.57900000000E-01  6.18700000000E-02
  15   4   3    6 C     1.49600000000E-01 -1.42100000000E-01 -4.38130000000E-01
  16   4   4    6 C    -1.49600000000E-01  3.57900000000E-01 -6.18700000000E-02

  17   5   1    6 C    -2.43200000000E-01  1.42420000000E-01 -4.85260000000E-01
  18   5   2    6 C     2.43200000000E-01 -3.57580000000E-01 -1.47400000000E-02
  19   5   3    6 C     2.43200000000E-01 -1.42420000000E-01  4.85260000000E-01
  20   5   4    6 C    -2.43200000000E-01  3.57580000000E-01  1.47400000000E-02

  21   6   1    6 C    -1.70400000000E-01  2.37940000000E-01 -3.90040000000E-01
  22   6   2    6 C     1.70400000000E-01 -2.62060000000E-01 -1.09960000000E-01
  23   6   3    6 C     1.70400000000E-01 -2.37940000000E-01  3.90040000000E-01
  24   6   4    6 C    -1.70400000000E-01  2.62060000000E-01  1.09960000000E-01

  25   7   1    6 C    -4.30000000000E-03  3.31620000000E-01 -3.70780000000E-01
  26   7   2    6 C     4.30000000000E-03 -1.68380000000E-01 -1.29220000000E-01
  27   7   3    6 C     4.30000000000E-03 -3.31620000000E-01  3.70780000000E-01
  28   7   4    6 C    -4.30000000000E-03  1.68380000000E-01  1.29220000000E-01

  29   8   1    6 C     9.21000000000E-02  3.29080000000E-01 -4.46010000000E-01
  30   8   2    6 C    -9.21000000000E-02 -1.70920000000E-01 -5.39900000000E-02
  31   8   3    6 C    -9.21000000000E-02 -3.29080000000E-01  4.46010000000E-01
  32   8   4    6 C     9.21000000000E-02  1.70920000000E-01  5.39900000000E-02

  33   9   1    6 C     1.94000000000E-02  2.34400000000E-01  4.58940000000E-01
  34   9   2    6 C    -1.94000000000E-02 -2.65600000000E-01  4.10600000000E-02
  35   9   3    6 C    -1.94000000000E-02 -2.34400000000E-01 -4.58940000000E-01
  36   9   4    6 C     1.94000000000E-02  2.65600000000E-01 -4.10600000000E-02

  37  10   1    6 C    -3.98300000000E-01 -1.59900000000E-02  2.80250000000E-01
  38  10   2    6 C     3.98300000000E-01  4.84010000000E-01  2.19750000000E-01
  39  10   3    6 C     3.98300000000E-01  1.59900000000E-02 -2.80250000000E-01
  40  10   4    6 C    -3.98300000000E-01 -4.84010000000E-01 -2.19750000000E-01

  41  11   1    6 C    -4.16800000000E-01 -1.03690000000E-01  1.75600000000E-01
  42  11   2    6 C     4.16800000000E-01  3.96310000000E-01  3.24400000000E-01
  43  11   3    6 C     4.16800000000E-01  1.03690000000E-01 -1.75600000000E-01
  44  11   4    6 C    -4.16800000000E-01 -3.96310000000E-01 -3.24400000000E-01

  45  12   1    1 H    -3.71600000000E-01  7.02000000000E-02 -4.98800000000E-01
  46  12   2    1 H     3.71600000000E-01 -4.29800000000E-01 -1.20000000000E-03
  47  12   3    1 H     3.71600000000E-01 -7.02000000000E-02  4.98800000000E-01
  48  12   4    1 H    -3.71600000000E-01  4.29800000000E-01  1.20000000000E-03

  49  13   1    1 H    -2.42200000000E-01  2.36600000000E-01 -3.30400000000E-01
  50  13   2    1 H     2.42200000000E-01 -2.63400000000E-01 -1.69600000000E-01
  51  13   3    1 H     2.42200000000E-01 -2.36600000000E-01  3.30400000000E-01
  52  13   4    1 H    -2.42200000000E-01  2.63400000000E-01  1.69600000000E-01

  53  14   1    1 H     2.23400000000E-01  4.00000000000E-01 -4.30900000000E-01
  54  14   2    1 H    -2.23400000000E-01 -1.00000000000E-01 -6.91000000000E-02
  55  14   3    1 H    -2.23400000000E-01 -4.00000000000E-01  4.30900000000E-01
  56  14   4    1 H     2.23400000000E-01  1.00000000000E-01  6.91000000000E-02

  57  15   1    1 H     9.23000000000E-02  2.33600000000E-01  3.99500000000E-01
  58  15   2    1 H    -9.23000000000E-02 -2.66400000000E-01  1.00500000000E-01
  59  15   3    1 H    -9.23000000000E-02 -2.33600000000E-01 -3.99500000000E-01
  60  15   4    1 H     9.23000000000E-02  2.66400000000E-01 -1.00500000000E-01

  61  16   1    1 H     2.00100000000E-01  4.64700000000E-01 -2.57600000000E-01
  62  16   2    1 H    -2.00100000000E-01 -3.53000000000E-02 -2.42400000000E-01
  63  16   3    1 H    -2.00100000000E-01 -4.64700000000E-01  2.57600000000E-01
  64  16   4    1 H     2.00100000000E-01  3.53000000000E-02  2.42400000000E-01

  65  17   1    1 H    -1.08200000000E-01  4.07000000000E-02  3.04900000000E-01
  66  17   2    1 H     1.08200000000E-01 -4.59300000000E-01  1.95100000000E-01
  67  17   3    1 H     1.08200000000E-01 -4.07000000000E-02 -3.04900000000E-01
  68  17   4    1 H    -1.08200000000E-01  4.59300000000E-01 -1.95100000000E-01

  69  18   1    1 H     4.31600000000E-01 -8.53000000000E-02  1.03900000000E-01
  70  18   2    1 H    -4.31600000000E-01  4.14700000000E-01  3.96100000000E-01
  71  18   3    1 H    -4.31600000000E-01  8.53000000000E-02 -1.03900000000E-01
  72  18   4    1 H     4.31600000000E-01 -4.14700000000E-01 -3.96100000000E-01

  73  19   1    1 H    -2.93900000000E-01 -7.98000000000E-02  1.49900000000E-01
  74  19   2    1 H     2.93900000000E-01  4.20200000000E-01  3.50100000000E-01
  75  19   3    1 H     2.93900000000E-01  7.98000000000E-02 -1.49900000000E-01
  76  19   4    1 H    -2.93900000000E-01 -4.20200000000E-01 -3.50100000000E-01

  77  20   1    1 H    -4.08600000000E-01 -2.19100000000E-01  1.97700000000E-01
  78  20   2    1 H     4.08600000000E-01  2.80900000000E-01  3.02300000000E-01
  79  20   3    1 H     4.08600000000E-01  2.19100000000E-01 -1.97700000000E-01
  80  20   4    1 H    -4.08600000000E-01 -2.80900000000E-01 -3.02300000000E-01

 NUMBER OF SYMMETRY OPERATORS         :    4
 *******************************************************************************
 * GEOMETRY EDITING - INPUT COORDINATES ARE GIVEN IN ANGSTROM         
 *******************************************************************************

 GEOMETRY NOW FULLY CONSISTENT WITH THE GROUP

 COORDINATES IN ANGSTROM

 GCALCO - MAX INDICES DIRECT LATTICE VECTOR    20    14    11
 NO.OF VECTORS CREATED 6999 STARS 1869 RMAX   107.28936 BOHR


 *******************************************************************************
 *  SEARCHING THE MOLECULES OF THE CRYSTAL
 *******************************************************************************

 MOLECULAR FRAGMENT N.    1
 REFERENCE ATOM:    1 IN CELL  0 0 0  COORDINATES    1.932   3.895  -3.179
 FRAGMENT COMPOSITION:
  SEQ.  NO. 
  NEW   OLD    CELL   AT. NO.             COORD.(A)
   1     1    0  0  0    8       1.9324    3.8945   -3.1794
   2    61    0  0  0    1       2.8206    4.2594   -2.9449
   3    25    0  0  0    6       1.9923    3.0396   -4.2388
   4    21    0  0  0    6       0.9225    2.1810   -4.4590
   5    29    0  0  0    6       3.0845    3.0163   -5.0988
   6    49    0  0  0    1       0.0893    2.1687   -3.7772
   7    17    0  0  0    6       0.9271    1.3054   -5.5475
   8    53    1  0  0    1       3.9308    3.6664   -4.9261
   9    33    0  0 -1    6       3.0888    2.1485   -6.1854
  10    45    0  0  0    1       0.0928    0.6435   -5.7023
  11    13    0  0 -1    6       2.0070    1.3025   -6.4234
  12    57    0  0 -1    1       3.9287    2.1412   -6.8650
  13     9    0  0 -1    7       2.1038    0.4598   -7.5554
  14    65    0  0 -1    1       3.0267    0.3731   -7.9464
  15    37   -1  0 -1    6       1.1093   -0.1466   -8.2283
  16     5   -1  0 -1    8      -0.0791   -0.0679   -7.9048
  17    41   -1  0 -1    6       1.5493   -0.9504   -9.4246
  18    73    0  0 -1    1       2.5588   -0.7314   -9.7184
  19    69   -1  0 -1    1       0.8682   -0.7819  -10.2443
  20    77   -1  0 -1    1       1.4867   -2.0083   -9.1720

 MOLECULAR FRAGMENT N.    2
 REFERENCE ATOM:    2 IN CELL  0 0 0  COORDINATES    0.795  -0.688  -2.537
 FRAGMENT COMPOSITION:
  SEQ.  NO. 
  NEW   OLD    CELL   AT. NO.             COORD.(A)
  21     2    0  0  0    8       0.7953   -0.6885   -2.5367
  22    62    0  0  0    1      -0.0929   -0.3236   -2.7711
  23    26    0  0  0    6       0.7353   -1.5434   -1.4773
  24    22    0  0  0    6       1.8051   -2.4020   -1.2571
  25    30    0  0  0    6      -0.3569   -1.5667   -0.6172
  26    50    0  0  0    1       2.6383   -2.4143   -1.9389
  27    18    0  0  0    6       1.8006   -3.2776   -0.1685
  28    54    0  0  0    1      -1.2031   -0.9166   -0.7900
  29    34    0  0  0    6      -0.3612   -2.4345    0.4694
  30    46    0  0  0    1       2.6349   -3.9395   -0.0137
  31    14    0  0  0    6       0.7206   -3.2805    0.7073
  32    58    0  0  0    1      -1.2011   -2.4418    1.1489
  33    10    0  0  0    7       0.6238   -4.1232    1.8393
  34    66    0  0  0    1      -0.2990   -4.2099    2.2304
  35    38    0 -1  0    6       1.6184   -4.7296    2.5122
  36     6    0 -1  0    8       2.8068   -4.6509    2.1888
  37    42    0 -1  0    6       1.1783   -5.5334    3.7086
  38    74    0 -1  0    1       0.1689   -5.3144    4.0024
  39    70    0 -1  0    1       1.8595   -5.3649    4.5283
  40    78    0 -1  0    1       1.2409   -6.5913    3.4559

 MOLECULAR FRAGMENT N.    3
 REFERENCE ATOM:    3 IN CELL  0 0 0  COORDINATES   -1.932  -3.895   3.179
 FRAGMENT COMPOSITION:
  SEQ.  NO. 
  NEW   OLD    CELL   AT. NO.             COORD.(A)
  41     3    0  0  0    8      -1.9324   -3.8945    3.1794
  42    63    0  0  0    1      -2.8206   -4.2594    2.9449
  43    27    0  0  0    6      -1.9923   -3.0396    4.2388
  44    23    0  0  0    6      -0.9225   -2.1810    4.4590
  45    31    0  0  0    6      -3.0845   -3.0163    5.0988
  46    51    0  0  0    1      -0.0893   -2.1687    3.7772
  47    19    0  0  0    6      -0.9271   -1.3054    5.5475
  48    55   -1  0  0    1      -3.9308   -3.6664    4.9261
  49    35    0  0  1    6      -3.0888   -2.1485    6.1854
  50    47    0  0  0    1      -0.0928   -0.6435    5.7023
  51    15    0  0  1    6      -2.0070   -1.3025    6.4234
  52    59    0  0  1    1      -3.9287   -2.1412    6.8650
  53    11    0  0  1    7      -2.1038   -0.4598    7.5554
  54    67    0  0  1    1      -3.0267   -0.3731    7.9464
  55    39    1  0  1    6      -1.1093    0.1466    8.2283
  56     7    1  0  1    8       0.0791    0.0679    7.9048
  57    43    1  0  1    6      -1.5493    0.9504    9.4246
  58    75    0  0  1    1      -2.5588    0.7314    9.7184
  59    71    1  0  1    1      -0.8682    0.7819   10.2443
  60    79    1  0  1    1      -1.4867    2.0083    9.1720

 MOLECULAR FRAGMENT N.    4
 REFERENCE ATOM:    4 IN CELL  0 0 0  COORDINATES   -0.795   0.688   2.537
 FRAGMENT COMPOSITION:
  SEQ.  NO. 
  NEW   OLD    CELL   AT. NO.             COORD.(A)
  61     4    0  0  0    8      -0.7953    0.6885    2.5367
  62    64    0  0  0    1       0.0929    0.3236    2.7711
  63    28    0  0  0    6      -0.7353    1.5434    1.4773
  64    24    0  0  0    6      -1.8051    2.4020    1.2571
  65    32    0  0  0    6       0.3569    1.5667    0.6172
  66    52    0  0  0    1      -2.6383    2.4143    1.9389
  67    20    0  0  0    6      -1.8006    3.2776    0.1685
  68    56    0  0  0    1       1.2031    0.9166    0.7900
  69    36    0  0  0    6       0.3612    2.4345   -0.4694
  70    48    0  0  0    1      -2.6349    3.9395    0.0137
  71    16    0  0  0    6      -0.7206    3.2805   -0.7073
  72    60    0  0  0    1       1.2011    2.4418   -1.1489
  73    12    0  0  0    7      -0.6238    4.1232   -1.8393
  74    68    0  0  0    1       0.2990    4.2099   -2.2304
  75    40    0  1  0    6      -1.6184    4.7296   -2.5122
  76     8    0  1  0    8      -2.8068    4.6509   -2.1888
  77    44    0  1  0    6      -1.1783    5.5334   -3.7086
  78    76    0  1  0    1      -0.1689    5.3144   -4.0024
  79    72    0  1  0    1      -1.8595    5.3649   -4.5283
  80    80    0  1  0    1      -1.2409    6.5913   -3.4559

 *******************************************************************************


 GCALCO - MAX INDICES DIRECT LATTICE VECTOR    20    14    11
 NO.OF VECTORS CREATED 6999 STARS 1869 RMAX   202.74750 BOHR

 GEOMETRY FOR WAVE FUNCTION - DIMENSIONALITY OF THE SYSTEM    3
 (NON PERIODIC DIRECTION: LATTICE PARAMETER FORMALLY SET TO 500)
 *******************************************************************************
 LATTICE PARAMETERS (ANGSTROMS AND DEGREES) - BOHR = 0.5291772083 ANGSTROM
 PRIMITIVE CELL - CENTRING CODE 1/0 VOLUME=   741.155555 - DENSITY  1.354 g/cm^3
         A              B              C           ALPHA      BETA       GAMMA 
     7.07300000     9.16600000    12.66700000    90.000000 115.510000  90.000000
 *******************************************************************************
 ATOMS IN THE ASYMMETRIC UNIT   20 - ATOMS IN THE UNIT CELL:   80
     ATOM                 X/A                 Y/B                 Z/C    
 *******************************************************************************
      1 T   8 O     5.870000000000E-02  4.248900000000E-01 -2.781100000000E-01
      2 T   1 H     2.001000000000E-01  4.647000000000E-01 -2.576000000000E-01
      3 T   6 C    -4.300000000000E-03  3.316200000000E-01 -3.707800000000E-01
      4 T   6 C    -1.704000000000E-01  2.379400000000E-01 -3.900400000000E-01
      5 T   6 C     9.210000000000E-02  3.290800000000E-01 -4.460100000000E-01
      6 T   1 H    -2.422000000000E-01  2.366000000000E-01 -3.304000000000E-01
      7 T   6 C    -2.432000000000E-01  1.424200000000E-01 -4.852600000000E-01
      8 T   1 H     2.234000000000E-01  4.000000000000E-01 -4.309000000000E-01
      9 T   6 C     1.940000000000E-02  2.344000000000E-01  4.589400000000E-01
     10 T   1 H    -3.716000000000E-01  7.020000000000E-02 -4.988000000000E-01
     11 T   6 C    -1.496000000000E-01  1.421000000000E-01  4.381300000000E-01
     12 T   1 H     9.230000000000E-02  2.336000000000E-01  3.995000000000E-01
     13 T   7 N    -2.122900000000E-01  5.016000000000E-02  3.391100000000E-01
     14 T   1 H    -1.082000000000E-01  4.070000000000E-02  3.049000000000E-01
     15 T   6 C    -3.983000000000E-01 -1.599000000000E-02  2.802500000000E-01
     16 T   8 O     4.555000000000E-01 -7.410000000000E-03  3.085400000000E-01
     17 T   6 C    -4.168000000000E-01 -1.036900000000E-01  1.756000000000E-01
     18 T   1 H    -2.939000000000E-01 -7.980000000000E-02  1.499000000000E-01
     19 T   1 H     4.316000000000E-01 -8.530000000000E-02  1.039000000000E-01
     20 T   1 H    -4.086000000000E-01 -2.191000000000E-01  1.977000000000E-01
     21 F   8 O    -5.870000000000E-02 -7.511000000000E-02 -2.218900000000E-01
     22 F   1 H    -2.001000000000E-01 -3.530000000000E-02 -2.424000000000E-01
     23 F   6 C     4.300000000000E-03 -1.683800000000E-01 -1.292200000000E-01
     24 F   6 C     1.704000000000E-01 -2.620600000000E-01 -1.099600000000E-01
     25 F   6 C    -9.210000000000E-02 -1.709200000000E-01 -5.399000000000E-02
     26 F   1 H     2.422000000000E-01 -2.634000000000E-01 -1.696000000000E-01
     27 F   6 C     2.432000000000E-01 -3.575800000000E-01 -1.474000000000E-02
     28 F   1 H    -2.234000000000E-01 -1.000000000000E-01 -6.910000000000E-02
     29 F   6 C    -1.940000000000E-02 -2.656000000000E-01  4.106000000000E-02
     30 F   1 H     3.716000000000E-01 -4.298000000000E-01 -1.200000000000E-03
     31 F   6 C     1.496000000000E-01 -3.579000000000E-01  6.187000000000E-02
     32 F   1 H    -9.230000000000E-02 -2.664000000000E-01  1.005000000000E-01
     33 F   7 N     2.122900000000E-01 -4.498400000000E-01  1.608900000000E-01
     34 F   1 H     1.082000000000E-01 -4.593000000000E-01  1.951000000000E-01
     35 F   6 C     3.983000000000E-01  4.840100000000E-01  2.197500000000E-01
     36 F   8 O    -4.555000000000E-01  4.925900000000E-01  1.914600000000E-01
     37 F   6 C     4.168000000000E-01  3.963100000000E-01  3.244000000000E-01
     38 F   1 H     2.939000000000E-01  4.202000000000E-01  3.501000000000E-01
     39 F   1 H    -4.316000000000E-01  4.147000000000E-01  3.961000000000E-01
     40 F   1 H     4.086000000000E-01  2.809000000000E-01  3.023000000000E-01
     41 F   8 O    -5.870000000000E-02 -4.248900000000E-01  2.781100000000E-01
     42 F   1 H    -2.001000000000E-01 -4.647000000000E-01  2.576000000000E-01
     43 F   6 C     4.300000000000E-03 -3.316200000000E-01  3.707800000000E-01
     44 F   6 C     1.704000000000E-01 -2.379400000000E-01  3.900400000000E-01
     45 F   6 C    -9.210000000000E-02 -3.290800000000E-01  4.460100000000E-01
     46 F   1 H     2.422000000000E-01 -2.366000000000E-01  3.304000000000E-01
     47 F   6 C     2.432000000000E-01 -1.424200000000E-01  4.852600000000E-01
     48 F   1 H    -2.234000000000E-01 -4.000000000000E-01  4.309000000000E-01
     49 F   6 C    -1.940000000000E-02 -2.344000000000E-01 -4.589400000000E-01
     50 F   1 H     3.716000000000E-01 -7.020000000000E-02  4.988000000000E-01
     51 F   6 C     1.496000000000E-01 -1.421000000000E-01 -4.381300000000E-01
     52 F   1 H    -9.230000000000E-02 -2.336000000000E-01 -3.995000000000E-01
     53 F   7 N     2.122900000000E-01 -5.016000000000E-02 -3.391100000000E-01
     54 F   1 H     1.082000000000E-01 -4.070000000000E-02 -3.049000000000E-01
     55 F   6 C     3.983000000000E-01  1.599000000000E-02 -2.802500000000E-01
     56 F   8 O    -4.555000000000E-01  7.410000000000E-03 -3.085400000000E-01
     57 F   6 C     4.168000000000E-01  1.036900000000E-01 -1.756000000000E-01
     58 F   1 H     2.939000000000E-01  7.980000000000E-02 -1.499000000000E-01
     59 F   1 H    -4.316000000000E-01  8.530000000000E-02 -1.039000000000E-01
     60 F   1 H     4.086000000000E-01  2.191000000000E-01 -1.977000000000E-01
     61 F   8 O     5.870000000000E-02  7.511000000000E-02  2.218900000000E-01
     62 F   1 H     2.001000000000E-01  3.530000000000E-02  2.424000000000E-01
     63 F   6 C    -4.300000000000E-03  1.683800000000E-01  1.292200000000E-01
     64 F   6 C    -1.704000000000E-01  2.620600000000E-01  1.099600000000E-01
     65 F   6 C     9.210000000000E-02  1.709200000000E-01  5.399000000000E-02
     66 F   1 H    -2.422000000000E-01  2.634000000000E-01  1.696000000000E-01
     67 F   6 C    -2.432000000000E-01  3.575800000000E-01  1.474000000000E-02
     68 F   1 H     2.234000000000E-01  1.000000000000E-01  6.910000000000E-02
     69 F   6 C     1.940000000000E-02  2.656000000000E-01 -4.106000000000E-02
     70 F   1 H    -3.716000000000E-01  4.298000000000E-01  1.200000000000E-03
     71 F   6 C    -1.496000000000E-01  3.579000000000E-01 -6.187000000000E-02
     72 F   1 H     9.230000000000E-02  2.664000000000E-01 -1.005000000000E-01
     73 F   7 N    -2.122900000000E-01  4.498400000000E-01 -1.608900000000E-01
     74 F   1 H    -1.082000000000E-01  4.593000000000E-01 -1.951000000000E-01
     75 F   6 C    -3.983000000000E-01 -4.840100000000E-01 -2.197500000000E-01
     76 F   8 O     4.555000000000E-01 -4.925900000000E-01 -1.914600000000E-01
     77 F   6 C    -4.168000000000E-01 -3.963100000000E-01 -3.244000000000E-01
     78 F   1 H    -2.939000000000E-01 -4.202000000000E-01 -3.501000000000E-01
     79 F   1 H     4.316000000000E-01 -4.147000000000E-01 -3.961000000000E-01
     80 F   1 H    -4.086000000000E-01 -2.809000000000E-01 -3.023000000000E-01

 T = ATOM BELONGING TO THE ASYMMETRIC UNIT

 ****    4 SYMMOPS - TRANSLATORS IN FRACTIONAL UNITS
 **** MATRICES AND TRANSLATORS IN THE CRYSTALLOGRAPHIC REFERENCE FRAME
   V INV                    ROTATION MATRICES                   TRANSLATORS
   1   1  1.00  0.00  0.00  0.00  1.00  0.00  0.00  0.00  1.00  0.00  0.00  0.00
   2   2 -1.00  0.00  0.00  0.00  1.00  0.00  0.00  0.00 -1.00 -0.00  0.50  0.50
   3   3 -1.00  0.00  0.00 -0.00 -1.00 -0.00  0.00  0.00 -1.00  0.00  0.00  0.00
   4   4  1.00  0.00 -0.00 -0.00 -1.00  0.00  0.00  0.00  1.00 -0.00  0.50  0.50

 DIRECT LATTICE VECTORS CARTESIAN COMPONENTS (ANGSTROM)
          X                    Y                    Z
   0.707300000000E+01   0.433096340518E-15   0.000000000000E+00
   0.000000000000E+00   0.916600000000E+01   0.000000000000E+00
  -0.545527942348E+01   0.775630050240E-15   0.114320958451E+02


 CARTESIAN COORDINATES - PRIMITIVE CELL
 *******************************************************************************
 *      ATOM          X(ANGSTROM)         Y(ANGSTROM)         Z(ANGSTROM)
 *******************************************************************************
    1     8 O     1.932352860464E+00  3.894541740000E+00 -3.179380175483E+00
    2     1 H     2.820587279488E+00  4.259440200000E+00 -2.944907889700E+00
    3     6 C     1.992294604637E+00  3.039628920000E+00 -4.238792497450E+00
    4     6 C     9.225379863334E-01  2.180958040000E+00 -4.458974663427E+00
    5     6 C     3.084532475666E+00  3.016347280000E+00 -5.098829067877E+00
    6     1 H     8.934372151720E-02  2.168675600000E+00 -3.777164467224E+00
    7     6 C     9.270752930370E-01  1.305421720000E+00 -5.547538829798E+00
    8     1 H     3.930788103577E+00  3.666400000000E+00 -4.926090099658E+00
    9     6 C     3.088849684867E+00  2.148510400000E+00 -6.185449777955E+00
   10     1 H     9.276657643093E-02  6.434532000000E-01 -5.702329407541E+00
   11     6 C     2.007037049670E+00  1.302488600000E+00 -6.423351692492E+00
   12     1 H     3.928733193799E+00  2.141177600000E+00 -6.864973554988E+00
   13     7 N     2.103812448183E+00  4.597665600000E-01 -7.555357823075E+00
   14     1 H     3.026666127260E+00  3.730562000000E-01 -7.946449821936E+00
   15     6 C     1.109261465048E+00 -1.465643400000E-01 -8.228250984518E+00
   16     8 O    -7.914098984176E-02 -6.792006000000E-02 -7.904836993060E+00
   17     6 C     1.549305956715E+00 -9.504225400000E-01 -9.424619814708E+00
   18     1 H     2.558778337899E+00 -7.314468000000E-01 -9.718424677928E+00
   19     1 H     8.681826913788E-01 -7.818598000000E-01 -1.024430108680E+01
   20     1 H     1.486742881457E+00 -2.008270600000E+00 -9.171970496532E+00
   21     8 O     7.952868512756E-01 -6.884582600000E-01 -2.536667747071E+00
   22     1 H    -9.294756774888E-02 -3.235598000000E-01 -2.771140032855E+00
   23     6 C     7.353451071019E-01 -1.543371080000E+00 -1.477255425105E+00
   24     6 C     1.805101725406E+00 -2.402041960000E+00 -1.257073259128E+00
   25     6 C    -3.568927639264E-01 -1.566652720000E+00 -6.172188546775E-01
   26     1 H     2.638295990222E+00 -2.414324400000E+00 -1.938883455331E+00
   27     6 C     1.800564418702E+00 -3.277578280000E+00 -1.685090927569E-01
   28     1 H    -1.203148391838E+00 -9.166000000000E-01 -7.899578228971E-01
   29     6 C    -3.612099731280E-01 -2.434489600000E+00  4.694018554002E-01
   30     1 H     2.634873135308E+00 -3.939546800000E+00 -1.371851501413E-02
   31     6 C     7.206026620694E-01 -3.280511400000E+00  7.073037699369E-01
   32     1 H    -1.201093482060E+00 -2.441822400000E+00  1.148925632434E+00
   33     7 N     6.238272635566E-01 -4.123233440000E+00  1.839309900520E+00
   34     1 H    -2.990264155206E-01 -4.209943800000E+00  2.230401899381E+00
   35     6 C     1.618378246691E+00 -4.729564340000E+00  2.512203061963E+00
   36     8 O     2.806780701581E+00 -4.650920060000E+00  2.188789070505E+00
   37     6 C     1.178333755024E+00 -5.533422540000E+00  3.708571892154E+00
   38     1 H     1.688613738403E-01 -5.314446800000E+00  4.002376755373E+00
   39     1 H     1.859457020360E+00 -5.364859800000E+00  4.528253164248E+00
   40     1 H     1.240896830283E+00 -6.591270600000E+00  3.455922573977E+00
   41     8 O    -1.932352860464E+00 -3.894541740000E+00  3.179380175483E+00
   42     1 H    -2.820587279488E+00 -4.259440200000E+00  2.944907889700E+00
   43     6 C    -1.992294604637E+00 -3.039628920000E+00  4.238792497450E+00
   44     6 C    -9.225379863334E-01 -2.180958040000E+00  4.458974663427E+00
   45     6 C    -3.084532475666E+00 -3.016347280000E+00  5.098829067877E+00
   46     1 H    -8.934372151720E-02 -2.168675600000E+00  3.777164467224E+00
   47     6 C    -9.270752930370E-01 -1.305421720000E+00  5.547538829798E+00
   48     1 H    -3.930788103577E+00 -3.666400000000E+00  4.926090099658E+00
   49     6 C    -3.088849684867E+00 -2.148510400000E+00  6.185449777955E+00
   50     1 H    -9.276657643093E-02 -6.434532000000E-01  5.702329407541E+00
   51     6 C    -2.007037049670E+00 -1.302488600000E+00  6.423351692492E+00
   52     1 H    -3.928733193799E+00 -2.141177600000E+00  6.864973554988E+00
   53     7 N    -2.103812448183E+00 -4.597665600000E-01  7.555357823075E+00
   54     1 H    -3.026666127260E+00 -3.730562000000E-01  7.946449821936E+00
   55     6 C    -1.109261465048E+00  1.465643400000E-01  8.228250984518E+00
   56     8 O     7.914098984176E-02  6.792006000000E-02  7.904836993060E+00
   57     6 C    -1.549305956715E+00  9.504225400000E-01  9.424619814708E+00
   58     1 H    -2.558778337899E+00  7.314468000000E-01  9.718424677928E+00
   59     1 H    -8.681826913788E-01  7.818598000000E-01  1.024430108680E+01
   60     1 H    -1.486742881457E+00  2.008270600000E+00  9.171970496532E+00
   61     8 O    -7.952868512756E-01  6.884582600000E-01  2.536667747071E+00
   62     1 H     9.294756774888E-02  3.235598000000E-01  2.771140032855E+00
   63     6 C    -7.353451071019E-01  1.543371080000E+00  1.477255425105E+00
   64     6 C    -1.805101725406E+00  2.402041960000E+00  1.257073259128E+00
   65     6 C     3.568927639264E-01  1.566652720000E+00  6.172188546775E-01
   66     1 H    -2.638295990222E+00  2.414324400000E+00  1.938883455331E+00
   67     6 C    -1.800564418702E+00  3.277578280000E+00  1.685090927569E-01
   68     1 H     1.203148391838E+00  9.166000000000E-01  7.899578228971E-01
   69     6 C     3.612099731280E-01  2.434489600000E+00 -4.694018554002E-01
   70     1 H    -2.634873135308E+00  3.939546800000E+00  1.371851501413E-02
   71     6 C    -7.206026620694E-01  3.280511400000E+00 -7.073037699369E-01
   72     1 H     1.201093482060E+00  2.441822400000E+00 -1.148925632434E+00
   73     7 N    -6.238272635566E-01  4.123233440000E+00 -1.839309900520E+00
   74     1 H     2.990264155206E-01  4.209943800000E+00 -2.230401899381E+00
   75     6 C    -1.618378246691E+00  4.729564340000E+00 -2.512203061963E+00
   76     8 O    -2.806780701581E+00  4.650920060000E+00 -2.188789070505E+00
   77     6 C    -1.178333755024E+00  5.533422540000E+00 -3.708571892154E+00
   78     1 H    -1.688613738403E-01  5.314446800000E+00 -4.002376755373E+00
   79     1 H    -1.859457020360E+00  5.364859800000E+00 -4.528253164248E+00
   80     1 H    -1.240896830283E+00  6.591270600000E+00 -3.455922573977E+00
 WARNING **** CRYSTA **** TESTGEOM  DIRECTIVE - GEOMETRY EDITING COMPLETE
 TTTTTTTTTTTTTTTTTTTTTTTTTTTTTT END         TELAPSE        0.08 TCPU        0.05
 EEEEEEEEEE TERMINATION  DATE 09 02 2023 TIME 18:11:11.3
NODE    0 CPU TIME =         0.047
NODE    1 CPU TIME =         0.048
    TOTAL CPU TIME =         0.094
CALCULATION END DATE Thu  9 Feb 18:11:11 GMT 2023
 
TEMPORARY          SAVED (in /home/huanyu/Desktop)
binary wf (fort.9) is not written on this node
 
Disk usage:total 12
-rw-r--r-- 1 huanyu users  677 Feb  9 18:11 INPUT
-rw-r--r-- 1 huanyu users 3310 Feb  9 18:11 Job_script
-rw-r--r-- 1 huanyu users 2491 Feb  9 18:11 Post_script
<du -m>
1	/home/huanyu/Desktop/tmp_form1-expt
</du -m>
Filesystem      1K-blocks     Used  Available Use% Mounted on
/dev/sda1      3897119540 72562956 3824556584   2% /home
/dev/sda1      3897119540 72562956 3824556584   2% /home
