Lmod has detected the following error: The following module(s) are unknown:
"epcc-job-env"

Please check the spelling or version number. Also try "module spider ..."
It is also possible your cache file is out-of-date; it may help to try:
  $ module --ignore-cache load "epcc-job-env"

Also make sure that all modulefiles written in TCL start with the string
#%Module




Warning: You have enabled access to software packages installed
by external parties on ARCHER2 or those that are not fully-supported.
The ARCHER2 CSE service does not test these packages. The service desk
will make reasonable efforts to assist with questions on the use of
these packages but some issues may not be able to be resolved by the
service and they may direct you to seek help from external parties.


         512 PROCESSORS WORKING

         
 *******************************************************************************
 *                                                                             *
 *                               CRYSTAL17                                     *
 *                      public : 1.0.2 - March 1st, 2018 STFC/Archer2 build    *
 *                       HTTP://WWW.CRYSTAL.UNITO.IT                           *
 *                                                                             *
 *                              MAIN AUTHORS                                   *
 *                                                                             *
 *  R. DOVESI(1,11), V.R. SAUNDERS(2), C. ROETTI(1,11), R. ORLANDO(1,11),      *
 *  C.M. ZICOVICH-WILSON(1,3), F. PASCALE(4), B. CIVALLERI(1,11),              *
 *  K. DOLL(5), N.M. HARRISON(2,6), I.J. BUSH(7), Ph. D'ARCO(8),               *
 *  M. LLUNELL(9), M. CAUSA'(10), Y. NOEL(8), L. MASCHIO(1,11), A. ERBA(1,11)  *
 *  M. RE'RAT(14), S. CASASSA(1,11)                                            *
 *                                                                             *
 *        CONTRIBUTIONS TO THE CODE HAVE ALSO BEEN GIVEN BY                    *
 *                                                                             *
 *  M. FERRABONE(1,11), M. DE LA PIERRE(1,11), M. FERRERO(1,11),               *
 *  J. BAIMA(1,11), E. ALBANESE(1,11), M.F. PEINTINGER(12), R. BAST(13),       *
 *  B. KIRTMAN(15), V. LACIVITA(1,11), R. DEMICHELIS(1,16)                     *
 *  G. BRANDEBURG(17), S. SALUSTRO(1,11), G. SANSONE(1,11)                     *
 *  M.T. RUGGIERO(18)                                                          *
 *                                                                             *
 * (1) THEORETICAL CHEMISTRY GROUP - UNIVERSITA' DI TORINO - TORINO (ITALY)    *
 * (2) COMPUTATIONAL SCIENCE & ENGINEERING DEPARTMENT - STFC DARESBURY (UK)    *
 * (3) UNIVERSIDAD AUTONOMA DEL ESTADO DE MORELOS - CUERNAVACA (MEXICO)        *
 * (4) UNIVERSITE' DE LORRAINE - NANCY (FRANCE)                                *
 * (5) UNIVERSITAET STUTTGART- STUTTGART (GERMANY)                             *
 * (6) IMPERIAL COLLEGE - LONDON (UK)                                          *
 * (7) OXFORD E-RESEARCH CENTRE - OXFORD (UK)                                  *
 * (8) UPMC - SORBONNE UNIVERSITES - PARIS (FRANCE)                            *
 * (9) UNIVERSIDAD DE BARCELONA - BARCELONA (SPAIN)                            *
 *(10) UNIVERSITA' DI NAPOLI "FEDERICO II" - NAPOLI (ITALY)                    *
 *(11) NIS - NANOSTRUCTURED INTERFACES AND SURFACES - TORINO (ITALY)           *
 *(12) MPI FUER CHEMISCHE ENERGIEKONVERSION - MUELHEIM AN DER RUHR (GERMANY)   *
 *(13) UNIVERSITY OF TROMSO - TROMSO (NORWAY)                                  *
 *(14) UNIVERSITE' DE PAU ET DES PAYS DE L'ADOUR - PAU (FRANCE)                *
 *(15) UNIVERSITY OF CALIFORNIA SANTA BARBARA - SANTA BARBARA (USA)            *
 *(16) CURTIN UNIVERSITY - PERTH (AUSTRALIA)                                   *
 *(17) UNIVERSITY COLLEGE LONDON - LONDON (UK)                                 *
 *(18) CAMBRIDGE UNIVERSITY - CAMBRIDGE (UK)                                   *
 *                                                                             *
 *******************************************************************************
 EEEEEEEEEE STARTING  DATE 08 03 2022 TIME 18:25:31.1
 F2 vol stepm2 freq - PBEh-3c                                                    

 GEOMETRY INPUT FROM EXTERNAL FILE (FORTRAN UNIT 34)
 3D - CRYSTAL 

 *******************************************************************************
 LATTICE PARAMETERS  (ANGSTROMS AND DEGREES) - PRIMITIVE CELL
       A          B          C        ALPHA      BETA     GAMMA        VOLUME
   11.75519    7.07471   17.13406    90.00000  90.00000  90.00000   1424.945535

 NUMBER OF IRREDUCIBLE ATOMS IN THE CELL:   20

 CARTESIAN COORDINATES (ANGSTROM) - IRREDUCIBLE ATOMS AND SYMMETRY RELATED

 AT.IRR.  AT  AT.N.          X                   Y                   Z
     1     1     8   -2.791234837142E+00  1.746903685967E+00 -6.333455591734E+00
     1     2     8   -3.086358026648E+00 -1.746903685967E+00  2.233573146478E+00
     1     3     8    3.086358026648E+00  1.790450563505E+00  6.333455591734E+00
     1     4     8    2.791234837142E+00 -1.790450563505E+00 -2.233573146478E+00
     1     5     8    2.791234837142E+00 -1.746903685967E+00  6.333455591734E+00
     1     6     8    3.086358026648E+00  1.746903685967E+00 -2.233573146478E+00
     1     7     8   -3.086358026648E+00 -1.790450563505E+00 -6.333455591734E+00
     1     8     8   -2.791234837142E+00  1.790450563505E+00  2.233573146478E+00
     9     9     8   -1.238414332495E+00  1.931435930316E+00  4.034043486100E-02
     9    10     8   -4.639178531295E+00 -1.931435930316E+00 -8.526688303351E+00
     9    11     8    4.639178531295E+00  1.605918319157E+00 -4.034043486100E-02
     9    12     8    1.238414332495E+00 -1.605918319157E+00  8.526688303351E+00
     9    13     8    1.238414332495E+00 -1.931435930316E+00 -4.034043486100E-02
     9    14     8    4.639178531295E+00  1.931435930316E+00  8.526688303351E+00
     9    15     8   -4.639178531295E+00 -1.605918319157E+00  4.034043486100E-02
     9    16     8   -1.238414332495E+00  1.605918319157E+00 -8.526688303351E+00
    17    17     7    1.843548090590E-01  1.452577163987E+00 -1.653060260356E+00
    17    18     7    5.693238054731E+00 -1.452577163987E+00  6.913968477856E+00
    17    19     7   -5.693238054731E+00  2.084777085486E+00  1.653060260356E+00
    17    20     7   -1.843548090590E-01 -2.084777085486E+00 -6.913968477856E+00
    17    21     7   -1.843548090590E-01 -1.452577163987E+00  1.653060260356E+00
    17    22     7   -5.693238054731E+00  1.452577163987E+00 -6.913968477856E+00
    17    23     7    5.693238054731E+00 -2.084777085486E+00 -1.653060260356E+00
    17    24     7    1.843548090590E-01  2.084777085486E+00  6.913968477856E+00
    25    25     6   -2.097825702092E+00  1.628102264987E+00 -5.182791991537E+00
    25    26     6   -3.779767161698E+00 -1.628102264987E+00  3.384236746675E+00
    25    27     6    3.779767161698E+00  1.909251984485E+00  5.182791991537E+00
    25    28     6    2.097825702092E+00 -1.909251984485E+00 -3.384236746675E+00
    25    29     6    2.097825702092E+00 -1.628102264987E+00  5.182791991537E+00
    25    30     6    3.779767161698E+00  1.628102264987E+00 -3.384236746675E+00
    25    31     6   -3.779767161698E+00 -1.909251984485E+00 -5.182791991537E+00
    25    32     6   -2.097825702092E+00  1.909251984485E+00  3.384236746675E+00
    33    33     6   -6.580746102900E-01  1.488409364217E+00 -2.779537990923E+00
    33    34     6   -5.219518253500E+00 -1.488409364217E+00  5.787490747289E+00
    33    35     6    5.219518253500E+00  2.048944885256E+00  2.779537990923E+00
    33    36     6    6.580746102900E-01 -2.048944885256E+00 -5.787490747289E+00
    33    37     6    6.580746102900E-01 -1.488409364217E+00  2.779537990923E+00
    33    38     6    5.219518253500E+00  1.488409364217E+00 -5.787490747289E+00
    33    39     6   -5.219518253500E+00 -2.048944885256E+00 -2.779537990923E+00
    33    40     6   -6.580746102900E-01  2.048944885256E+00  5.787490747289E+00
    41    41     6   -1.931112226770E+00  2.052029036060E+00 -2.810892275462E+00
    41    42     6   -3.946480637019E+00 -2.052029036060E+00  5.756136462750E+00
    41    43     6    3.946480637019E+00  1.485325213412E+00  2.810892275462E+00
    41    44     6    1.931112226770E+00 -1.485325213412E+00 -5.756136462750E+00
    41    45     6    1.931112226770E+00 -2.052029036060E+00  2.810892275462E+00
    41    46     6    3.946480637019E+00  2.052029036060E+00 -5.756136462750E+00
    41    47     6   -3.946480637019E+00 -1.485325213412E+00 -2.810892275462E+00
    41    48     6   -1.931112226770E+00  1.485325213412E+00  5.756136462750E+00
    49    49     6   -2.640827523415E+00  2.118467275572E+00 -4.001175826745E+00
    49    50     6   -3.236765340374E+00 -2.118467275572E+00  4.565852911467E+00
    49    51     6    3.236765340374E+00  1.418886973900E+00  4.001175826745E+00
    49    52     6    2.640827523415E+00 -1.418886973900E+00 -4.565852911467E+00
    49    53     6    2.640827523415E+00 -2.118467275572E+00  4.001175826745E+00
    49    54     6    3.236765340374E+00  2.118467275572E+00 -4.565852911467E+00
    49    55     6   -3.236765340374E+00 -1.418886973900E+00 -4.001175826745E+00
    49    56     6   -2.640827523415E+00  1.418886973900E+00  4.565852911467E+00
    57    57     6    1.077620760805E+00  1.560665837256E+00  5.651677897770E-01
    57    58     6    4.799972102985E+00 -1.560665837256E+00 -8.001860948435E+00
    57    59     6   -4.799972102985E+00  1.976688412216E+00 -5.651677897770E-01
    57    60     6   -1.077620760805E+00 -1.976688412216E+00  8.001860948435E+00
    57    61     6   -1.077620760805E+00 -1.560665837256E+00 -5.651677897770E-01
    57    62     6   -4.799972102985E+00  1.560665837256E+00  8.001860948435E+00
    57    63     6    4.799972102985E+00 -1.976688412216E+00  5.651677897770E-01
    57    64     6    1.077620760805E+00  1.976688412216E+00 -8.001860948435E+00
    65    65     6   -8.482336130050E-01  1.018700903057E+00 -5.140120367623E+00
    65    66     6   -5.029359250785E+00 -1.018700903057E+00  3.426908370589E+00
    65    67     6    5.029359250785E+00  2.518653346416E+00  5.140120367623E+00
    65    68     6    8.482336130050E-01 -2.518653346416E+00 -3.426908370589E+00
    65    69     6    8.482336130050E-01 -1.018700903057E+00  5.140120367623E+00
    65    70     6    5.029359250785E+00  1.018700903057E+00 -3.426908370589E+00
    65    71     6   -5.029359250785E+00 -2.518653346416E+00 -5.140120367623E+00
    65    72     6   -8.482336130050E-01  2.518653346416E+00  3.426908370589E+00
    73    73     6   -1.057179418770E-01  1.659199044624E+00 -3.601922906740E-01
    73    74     6   -5.771874921913E+00 -1.659199044624E+00  8.206836447538E+00
    73    75     6    5.771874921913E+00  1.878155204848E+00  3.601922906740E-01
    73    76     6    1.057179418770E-01 -1.878155204848E+00 -8.206836447538E+00
    73    77     6    1.057179418770E-01 -1.659199044624E+00  3.601922906740E-01
    73    78     6    5.771874921913E+00  1.659199044624E+00 -8.206836447538E+00
    73    79     6   -5.771874921913E+00 -1.878155204848E+00 -3.601922906740E-01
    73    80     6   -1.057179418770E-01  1.878155204848E+00  8.206836447538E+00
    81    81     6   -1.399058946380E-01  9.553637847280E-01 -3.956688423477E+00
    81    82     6   -5.737686969152E+00 -9.553637847280E-01  4.610340314735E+00
    81    83     6    5.737686969152E+00  2.581990464744E+00  3.956688423477E+00
    81    84     6    1.399058946380E-01 -2.581990464744E+00 -4.610340314735E+00
    81    85     6    1.399058946380E-01 -9.553637847280E-01  3.956688423477E+00
    81    86     6    5.737686969152E+00  9.553637847280E-01 -4.610340314735E+00
    81    87     6   -5.737686969152E+00 -2.581990464744E+00 -3.956688423477E+00
    81    88     6   -1.399058946380E-01  2.581990464744E+00  4.610340314735E+00
    89    89     1   -2.193107084575E+00  1.628858105166E+00 -7.103437411681E+00
    89    90     1   -3.684485779214E+00 -1.628858105166E+00  1.463591326532E+00
    89    91     1    3.684485779214E+00  1.908496144306E+00  7.103437411681E+00
    89    92     1    2.193107084575E+00 -1.908496144306E+00 -1.463591326532E+00
    89    93     1    2.193107084575E+00 -1.628858105166E+00  7.103437411681E+00
    89    94     1    3.684485779214E+00  1.628858105166E+00 -1.463591326532E+00
    89    95     1   -3.684485779214E+00 -1.908496144306E+00 -7.103437411681E+00
    89    96     1   -2.193107084575E+00  1.908496144306E+00  1.463591326532E+00
    97    97     1    1.168011255140E+00  1.322656554301E+00 -1.871452798837E+00
    97    98     1    4.709581608650E+00 -1.322656554301E+00  6.695575939375E+00
    97    99     1   -4.709581608650E+00  2.214697695172E+00  1.871452798837E+00
    97   100     1   -1.168011255140E+00 -2.214697695172E+00 -6.695575939375E+00
    97   101     1   -1.168011255140E+00 -1.322656554301E+00  1.871452798837E+00
    97   102     1   -4.709581608650E+00  1.322656554301E+00 -6.695575939375E+00
    97   103     1    4.709581608650E+00 -2.214697695172E+00 -1.871452798837E+00
    97   104     1    1.168011255140E+00  2.214697695172E+00  6.695575939375E+00
   105   105     1   -2.374692669128E+00  2.470755395878E+00 -1.923646443499E+00
   105   106     1   -3.502900194661E+00 -2.470755395878E+00  6.643382294713E+00
   105   107     1    3.502900194661E+00  1.066598853594E+00  1.923646443499E+00
   105   108     1    2.374692669128E+00 -1.066598853594E+00 -6.643382294713E+00
   105   109     1    2.374692669128E+00 -2.470755395878E+00  1.923646443499E+00
   105   110     1    3.502900194661E+00  2.470755395878E+00 -6.643382294713E+00
   105   111     1   -3.502900194661E+00 -1.066598853594E+00 -1.923646443499E+00
   105   112     1   -2.374692669128E+00  1.066598853594E+00  6.643382294713E+00
   113   113     1   -3.618375988561E+00  2.582375759505E+00 -4.006981679972E+00
   113   114     1   -2.259216875228E+00 -2.582375759505E+00  4.560047058240E+00
   113   115     1    2.259216875228E+00  9.549784899670E-01  4.006981679972E+00
   113   116     1    3.618375988561E+00 -9.549784899670E-01 -4.560047058240E+00
   113   117     1    3.618375988561E+00 -2.582375759505E+00  4.006981679972E+00
   113   118     1    2.259216875228E+00  2.582375759505E+00 -4.560047058240E+00
   113   119     1   -2.259216875228E+00 -9.549784899670E-01 -4.006981679972E+00
   113   120     1   -3.618375988561E+00  9.549784899670E-01  4.560047058240E+00
   121   121     1    1.551101734278E+00  2.539518505022E+00  6.550897581060E-01
   121   122     1    4.326491129511E+00 -2.539518505022E+00 -7.911938980106E+00
   121   123     1   -4.326491129511E+00  9.978357444510E-01 -6.550897581060E-01
   121   124     1   -1.551101734278E+00 -9.978357444510E-01  7.911938980106E+00
   121   125     1   -1.551101734278E+00 -2.539518505022E+00 -6.550897581060E-01
   121   126     1   -4.326491129511E+00  2.539518505022E+00  7.911938980106E+00
   121   127     1    4.326491129511E+00 -9.978357444510E-01  6.550897581060E-01
   121   128     1    1.551101734278E+00  9.978357444510E-01 -7.911938980106E+00
   129   129     1    1.828923444668E+00  8.602522141430E-01  2.072373632620E-01
   129   130     1    4.048669419121E+00 -8.602522141430E-01 -8.359791374950E+00
   129   131     1   -4.048669419121E+00  2.677102035329E+00 -2.072373632620E-01
   129   132     1   -1.828923444668E+00 -2.677102035329E+00  8.359791374950E+00
   129   133     1   -1.828923444668E+00 -8.602522141430E-01 -2.072373632620E-01
   129   134     1   -4.048669419121E+00  8.602522141430E-01  8.359791374950E+00
   129   135     1    4.048669419121E+00 -2.677102035329E+00  2.072373632620E-01
   129   136     1    1.828923444668E+00  2.677102035329E+00 -8.359791374950E+00
   137   137     1    7.582964202720E-01  1.249542579247E+00  1.556141062053E+00
   137   138     1    5.119296443518E+00 -1.249542579247E+00 -7.010887676159E+00
   137   139     1   -5.119296443518E+00  2.287811670226E+00 -1.556141062053E+00
   137   140     1   -7.582964202720E-01 -2.287811670226E+00  7.010887676159E+00
   137   141     1   -7.582964202720E-01 -1.249542579247E+00 -1.556141062053E+00
   137   142     1   -5.119296443518E+00  1.249542579247E+00  7.010887676159E+00
   137   143     1    5.119296443518E+00 -2.287811670226E+00  1.556141062053E+00
   137   144     1    7.582964202720E-01  2.287811670226E+00 -7.010887676159E+00
   145   145     1   -4.246587635130E-01  5.759476380080E-01 -6.030235565587E+00
   145   146     1   -5.452934100276E+00 -5.759476380080E-01  2.536793172625E+00
   145   147     1    5.452934100276E+00  2.961406611465E+00  6.030235565587E+00
   145   148     1    4.246587635130E-01 -2.961406611465E+00 -2.536793172625E+00
   145   149     1    4.246587635130E-01 -5.759476380080E-01  6.030235565587E+00
   145   150     1    5.452934100276E+00  5.759476380080E-01 -2.536793172625E+00
   145   151     1   -5.452934100276E+00 -2.961406611465E+00 -6.030235565587E+00
   145   152     1   -4.246587635130E-01  2.961406611465E+00  2.536793172625E+00
   153   153     1    8.340632093590E-01  4.818799313570E-01 -3.960258283120E+00
   153   154     1    5.043529654430E+00 -4.818799313570E-01  4.606770455092E+00
   153   155     1   -5.043529654430E+00  3.055474318116E+00  3.960258283120E+00
   153   156     1   -8.340632093590E-01 -3.055474318116E+00 -4.606770455092E+00
   153   157     1   -8.340632093590E-01 -4.818799313570E-01  3.960258283120E+00
   153   158     1   -5.043529654430E+00  4.818799313570E-01 -4.606770455092E+00
   153   159     1    5.043529654430E+00 -3.055474318116E+00 -3.960258283120E+00
   153   160     1    8.340632093590E-01  3.055474318116E+00  4.606770455092E+00

 SPACE  GROUP  N.                     :   61
 NUMBER OF SYMMETRY OPERATORS         :    8
 *******************************************************************************
 LATTICE PARAMETERS (ANGSTROMS AND DEGREES) - BOHR = 0.5291772083 ANGSTROM
 PRIMITIVE CELL - CENTRING CODE 1/0 VOLUME=  1424.945535 - DENSITY  1.408 g/cm^3
         A              B              C           ALPHA      BETA       GAMMA 
    11.75518573     7.07470850    17.13405748    90.000000  90.000000  90.000000
 *******************************************************************************
 ATOMS IN THE ASYMMETRIC UNIT   20 - ATOMS IN THE UNIT CELL:  160
     ATOM                 X/A                 Y/B                 Z/C    
 *******************************************************************************
      1 T   8 O    -2.374471064790E-01  2.469223553488E-01 -3.696413182025E-01
      2 F   8 O    -2.625528935201E-01 -2.469223553488E-01  1.303586817982E-01
      3 F   8 O     2.625528935201E-01  2.530776446508E-01  3.696413182025E-01
      4 F   8 O     2.374471064790E-01 -2.530776446508E-01 -1.303586817982E-01
      5 F   8 O     2.374471064790E-01 -2.469223553488E-01  3.696413182025E-01
      6 F   8 O     2.625528935201E-01  2.469223553488E-01 -1.303586817982E-01
      7 F   8 O    -2.625528935201E-01 -2.530776446508E-01 -3.696413182025E-01
      8 F   8 O    -2.374471064790E-01  2.530776446508E-01  1.303586817982E-01
      9 T   8 O    -1.053504692476E-01  2.730057260455E-01  2.354400580047E-03
     10 F   8 O    -3.946495307516E-01 -2.730057260455E-01 -4.976455994207E-01
     11 F   8 O     3.946495307516E-01  2.269942739542E-01 -2.354400580047E-03
     12 F   8 O     1.053504692476E-01 -2.269942739542E-01  4.976455994207E-01
     13 F   8 O     1.053504692476E-01 -2.730057260455E-01 -2.354400580047E-03
     14 F   8 O     3.946495307516E-01  2.730057260455E-01  4.976455994207E-01
     15 F   8 O    -3.946495307516E-01 -2.269942739542E-01  2.354400580047E-03
     16 F   8 O    -1.053504692476E-01  2.269942739542E-01 -4.976455994207E-01
     17 T   7 N     1.568284953815E-02  2.053197194206E-01 -9.647803870349E-02
     18 F   7 N     4.843171504610E-01 -2.053197194206E-01  4.035219612972E-01
     19 F   7 N    -4.843171504610E-01  2.946802805791E-01  9.647803870349E-02
     20 F   7 N    -1.568284953815E-02 -2.946802805791E-01 -4.035219612972E-01
     21 F   7 N    -1.568284953815E-02 -2.053197194206E-01  9.647803870349E-02
     22 F   7 N    -4.843171504610E-01  2.053197194206E-01 -4.035219612972E-01
     23 F   7 N     4.843171504610E-01 -2.946802805791E-01 -9.647803870349E-02
     24 F   7 N     1.568284953815E-02  2.946802805791E-01  4.035219612972E-01
     25 T   6 C    -1.784595965308E-01  2.301299431953E-01 -3.024848024863E-01
     26 F   6 C    -3.215404034684E-01 -2.301299431953E-01  1.975151975144E-01
     27 F   6 C     3.215404034684E-01  2.698700568042E-01  3.024848024863E-01
     28 F   6 C     1.784595965308E-01 -2.698700568042E-01 -1.975151975144E-01
     29 F   6 C     1.784595965308E-01 -2.301299431953E-01  3.024848024863E-01
     30 F   6 C     3.215404034684E-01  2.301299431953E-01 -1.975151975144E-01
     31 F   6 C    -3.215404034684E-01 -2.698700568042E-01 -3.024848024863E-01
     32 F   6 C    -1.784595965308E-01  2.698700568042E-01  1.975151975144E-01
     33 T   6 C    -5.598164295651E-02  2.103845500402E-01 -1.622229874477E-01
     34 F   6 C    -4.440183570426E-01 -2.103845500402E-01  3.377770125530E-01
     35 F   6 C     4.440183570426E-01  2.896154499595E-01  1.622229874477E-01
     36 F   6 C     5.598164295651E-02 -2.896154499595E-01 -3.377770125530E-01
     37 F   6 C     5.598164295651E-02 -2.103845500402E-01  1.622229874477E-01
     38 F   6 C     4.440183570426E-01  2.103845500402E-01 -3.377770125530E-01
     39 F   6 C    -4.440183570426E-01 -2.896154499595E-01 -1.622229874477E-01
     40 F   6 C    -5.598164295651E-02  2.896154499595E-01  3.377770125530E-01
     41 T   6 C    -1.642774747689E-01  2.900513902961E-01 -1.640529267124E-01
     42 F   6 C    -3.357225252301E-01 -2.900513902961E-01  3.359470732883E-01
     43 F   6 C     3.357225252301E-01  2.099486097035E-01  1.640529267124E-01
     44 F   6 C     1.642774747689E-01 -2.099486097035E-01 -3.359470732883E-01
     45 F   6 C     1.642774747689E-01 -2.900513902961E-01  1.640529267124E-01
     46 F   6 C     3.357225252301E-01  2.900513902961E-01 -3.359470732883E-01
     47 F   6 C    -3.357225252301E-01 -2.099486097035E-01 -1.640529267124E-01
     48 F   6 C    -1.642774747689E-01  2.099486097035E-01  3.359470732883E-01
     49 T   6 C    -2.246521309497E-01  2.994423411066E-01 -2.335217932037E-01
     50 F   6 C    -2.753478690494E-01 -2.994423411066E-01  2.664782067970E-01
     51 F   6 C     2.753478690494E-01  2.005576588930E-01  2.335217932037E-01
     52 F   6 C     2.246521309497E-01 -2.005576588930E-01 -2.664782067970E-01
     53 F   6 C     2.246521309497E-01 -2.994423411066E-01  2.335217932037E-01
     54 F   6 C     2.753478690494E-01  2.994423411066E-01 -2.664782067970E-01
     55 F   6 C    -2.753478690494E-01 -2.005576588930E-01 -2.335217932037E-01
     56 F   6 C    -2.246521309497E-01  2.005576588930E-01  2.664782067970E-01
     57 T   6 C     9.167194681364E-02  2.205978998976E-01  3.298505275563E-02
     58 F   6 C     4.083280531855E-01 -2.205978998976E-01 -4.670149472451E-01
     59 F   6 C    -4.083280531855E-01  2.794021001020E-01 -3.298505275563E-02
     60 F   6 C    -9.167194681364E-02 -2.794021001020E-01  4.670149472451E-01
     61 F   6 C    -9.167194681364E-02 -2.205978998976E-01 -3.298505275563E-02
     62 F   6 C    -4.083280531855E-01  2.205978998976E-01  4.670149472451E-01
     63 F   6 C     4.083280531855E-01 -2.794021001020E-01  3.298505275563E-02
     64 F   6 C     9.167194681364E-02  2.794021001020E-01 -4.670149472451E-01
     65 T   6 C    -7.215824850929E-02  1.439919260572E-01 -2.999943460388E-01
     66 F   6 C    -4.278417514899E-01 -1.439919260572E-01  2.000056539619E-01
     67 F   6 C     4.278417514899E-01  3.560080739425E-01  2.999943460388E-01
     68 F   6 C     7.215824850929E-02 -3.560080739425E-01 -2.000056539619E-01
     69 F   6 C     7.215824850929E-02 -1.439919260572E-01  2.999943460388E-01
     70 F   6 C     4.278417514899E-01  1.439919260572E-01 -2.000056539619E-01
     71 F   6 C    -4.278417514899E-01 -3.560080739425E-01 -2.999943460388E-01
     72 F   6 C    -7.215824850929E-02  3.560080739425E-01  2.000056539619E-01
     73 T   6 C    -8.993302558273E-03  2.345254288386E-01 -2.102200784433E-02
     74 F   6 C    -4.910066974409E-01 -2.345254288386E-01  4.789779921564E-01
     75 F   6 C     4.910066974409E-01  2.654745711610E-01  2.102200784433E-02
     76 F   6 C     8.993302558273E-03 -2.654745711610E-01 -4.789779921564E-01
     77 F   6 C     8.993302558273E-03 -2.345254288386E-01  2.102200784433E-02
     78 F   6 C     4.910066974409E-01  2.345254288386E-01 -4.789779921564E-01
     79 F   6 C    -4.910066974409E-01 -2.654745711610E-01 -2.102200784433E-02
     80 F   6 C    -8.993302558273E-03  2.654745711610E-01  4.789779921564E-01
     81 T   6 C    -1.190163200140E-02  1.350393143222E-01 -2.309253618956E-01
     82 F   6 C    -4.880983679977E-01 -1.350393143222E-01  2.690746381051E-01
     83 F   6 C     4.880983679977E-01  3.649606856773E-01  2.309253618956E-01
     84 F   6 C     1.190163200140E-02 -3.649606856773E-01 -2.690746381051E-01
     85 F   6 C     1.190163200140E-02 -1.350393143222E-01  2.309253618956E-01
     86 F   6 C     4.880983679977E-01  1.350393143222E-01 -2.690746381051E-01
     87 F   6 C    -4.880983679977E-01 -3.649606856773E-01 -2.309253618956E-01
     88 F   6 C    -1.190163200140E-02  3.649606856773E-01  2.690746381051E-01
     89 T   1 H    -1.865650731001E-01  2.302367801313E-01 -4.145799920109E-01
     90 F   1 H    -3.134349268990E-01 -2.302367801313E-01  8.542000798981E-02
     91 F   1 H     3.134349268990E-01  2.697632198682E-01  4.145799920109E-01
     92 F   1 H     1.865650731001E-01 -2.697632198682E-01 -8.542000798981E-02
     93 F   1 H     1.865650731001E-01 -2.302367801313E-01  4.145799920109E-01
     94 F   1 H     3.134349268990E-01  2.302367801313E-01 -8.542000798981E-02
     95 F   1 H    -3.134349268990E-01 -2.697632198682E-01 -4.145799920109E-01
     96 F   1 H    -1.865650731001E-01  2.697632198682E-01  8.542000798981E-02
     97 T   1 H     9.936136120739E-02  1.869556257332E-01 -1.092241462021E-01
     98 F   1 H     4.006386387918E-01 -1.869556257332E-01  3.907758537986E-01
     99 F   1 H    -4.006386387918E-01  3.130443742665E-01  1.092241462021E-01
    100 F   1 H    -9.936136120739E-02 -3.130443742665E-01 -3.907758537986E-01
    101 F   1 H    -9.936136120739E-02 -1.869556257332E-01  1.092241462021E-01
    102 F   1 H    -4.006386387918E-01  1.869556257332E-01 -3.907758537986E-01
    103 F   1 H     4.006386387918E-01 -3.130443742665E-01 -1.092241462021E-01
    104 F   1 H     9.936136120739E-02  3.130443742665E-01  3.907758537986E-01
    105 T   1 H    -2.020123479251E-01  3.492377666507E-01 -1.122703391271E-01
    106 F   1 H    -2.979876520740E-01 -3.492377666507E-01  3.877296608736E-01
    107 F   1 H     2.979876520740E-01  1.507622333489E-01  1.122703391271E-01
    108 F   1 H     2.020123479251E-01 -1.507622333489E-01 -3.877296608736E-01
    109 F   1 H     2.020123479251E-01 -3.492377666507E-01  1.122703391271E-01
    110 F   1 H     2.979876520740E-01  3.492377666507E-01 -3.877296608736E-01
    111 F   1 H    -2.979876520740E-01 -1.507622333489E-01 -1.122703391271E-01
    112 F   1 H    -2.020123479251E-01  1.507622333489E-01  3.877296608736E-01
    113 T   1 H    -3.078110437733E-01  3.650151465447E-01 -2.338606419111E-01
    114 F   1 H    -1.921889562258E-01 -3.650151465447E-01  2.661393580896E-01
    115 F   1 H     1.921889562258E-01  1.349848534549E-01  2.338606419111E-01
    116 F   1 H     3.078110437733E-01 -1.349848534549E-01 -2.661393580896E-01
    117 F   1 H     3.078110437733E-01 -3.650151465447E-01  2.338606419111E-01
    118 F   1 H     1.921889562258E-01  3.650151465447E-01 -2.661393580896E-01
    119 F   1 H    -1.921889562258E-01 -1.349848534549E-01 -2.338606419111E-01
    120 F   1 H    -3.078110437733E-01  1.349848534549E-01  2.661393580896E-01
    121 T   1 H     1.319504234319E-01  3.589573344822E-01  3.823319485232E-02
    122 F   1 H     3.680495765671E-01 -3.589573344822E-01 -4.617668051484E-01
    123 F   1 H    -3.680495765671E-01  1.410426655175E-01 -3.823319485232E-02
    124 F   1 H    -1.319504234319E-01 -1.410426655175E-01  4.617668051484E-01
    125 F   1 H    -1.319504234319E-01 -3.589573344822E-01 -3.823319485232E-02
    126 F   1 H    -3.680495765671E-01  3.589573344822E-01  4.617668051484E-01
    127 F   1 H     3.680495765671E-01 -1.410426655175E-01  3.823319485232E-02
    128 F   1 H     1.319504234319E-01  1.410426655175E-01 -4.617668051484E-01
    129 T   1 H     1.555843937347E-01  1.215954288817E-01  1.209505474973E-02
    130 F   1 H     3.444156062643E-01 -1.215954288817E-01 -4.879049452510E-01
    131 F   1 H    -3.444156062643E-01  3.784045711179E-01 -1.209505474973E-02
    132 F   1 H    -1.555843937347E-01 -3.784045711179E-01  4.879049452510E-01
    133 F   1 H    -1.555843937347E-01 -1.215954288817E-01 -1.209505474973E-02
    134 F   1 H    -3.444156062643E-01  1.215954288817E-01  4.879049452510E-01
    135 F   1 H     3.444156062643E-01 -3.784045711179E-01  1.209505474973E-02
    136 F   1 H     1.555843937347E-01  3.784045711179E-01 -4.879049452510E-01
    137 T   1 H     6.450739595646E-02  1.766210691836E-01  9.082151523049E-02
    138 F   1 H     4.354926040427E-01 -1.766210691836E-01 -4.091784847702E-01
    139 F   1 H    -4.354926040427E-01  3.233789308161E-01 -9.082151523049E-02
    140 F   1 H    -6.450739595646E-02 -3.233789308161E-01  4.091784847702E-01
    141 F   1 H    -6.450739595646E-02 -1.766210691836E-01 -9.082151523049E-02
    142 F   1 H    -4.354926040427E-01  1.766210691836E-01  4.091784847702E-01
    143 F   1 H     4.354926040427E-01 -3.233789308161E-01  9.082151523049E-02
    144 F   1 H     6.450739595646E-02  3.233789308161E-01 -4.091784847702E-01
    145 T   1 H    -3.612522790822E-02  8.140938076720E-02 -3.519443992699E-01
    146 F   1 H    -4.638747720908E-01 -8.140938076720E-02  1.480556007308E-01
    147 F   1 H     4.638747720908E-01  4.185906192325E-01  3.519443992699E-01
    148 F   1 H     3.612522790822E-02 -4.185906192325E-01 -1.480556007308E-01
    149 F   1 H     3.612522790822E-02 -8.140938076720E-02  3.519443992699E-01
    150 F   1 H     4.638747720908E-01  8.140938076720E-02 -1.480556007308E-01
    151 F   1 H    -4.638747720908E-01 -4.185906192325E-01 -3.519443992699E-01
    152 F   1 H    -3.612522790822E-02  4.185906192325E-01  1.480556007308E-01
    153 T   1 H     7.095278872546E-02  6.811304401143E-02 -2.311337106564E-01
    154 F   1 H     4.290472112736E-01 -6.811304401143E-02  2.688662893443E-01
    155 F   1 H    -4.290472112736E-01  4.318869559883E-01  2.311337106564E-01
    156 F   1 H    -7.095278872546E-02 -4.318869559883E-01 -2.688662893443E-01
    157 F   1 H    -7.095278872546E-02 -6.811304401143E-02  2.311337106564E-01
    158 F   1 H    -4.290472112736E-01  6.811304401143E-02 -2.688662893443E-01
    159 F   1 H     4.290472112736E-01 -4.318869559883E-01 -2.311337106564E-01
    160 F   1 H     7.095278872546E-02  4.318869559883E-01  2.688662893443E-01

 T = ATOM BELONGING TO THE ASYMMETRIC UNIT
 *******************************************************************************
 * GEOMETRY EDITING - INPUT COORDINATES ARE GIVEN IN ANGSTROM         
 *******************************************************************************

 GEOMETRY NOW FULLY CONSISTENT WITH THE GROUP

 FRQFRQFRQFRQFRQFRQFRQFRQFRQFRQFRQFRQFRQFRQFRQFRQFRQFRQFRQFRQFRQFRQFRQFRQFRQFRQ

                       FREQUENCY CALCULATION

 INFORMATION **** INPFREQ ****  PRINTING OF EIGENVECTORS
 INFORMATION **** INPFREQ **** NEW DEFAULT - IMPOSING ECKART CONDITIONS TO THE HESSIAN

 GCALCO - MAX INDICES DIRECT LATTICE VECTOR    14    24     9
 NO.OF VECTORS CREATED 6999 STARS 1061 RMAX   252.45679 BOHR

 GEOMETRY FOR WAVE FUNCTION - DIMENSIONALITY OF THE SYSTEM    3
 (NON PERIODIC DIRECTION: LATTICE PARAMETER FORMALLY SET TO 500)
 *******************************************************************************
 LATTICE PARAMETERS (ANGSTROMS AND DEGREES) - BOHR = 0.5291772083 ANGSTROM
 PRIMITIVE CELL - CENTRING CODE 1/0 VOLUME=  1424.945535 - DENSITY  1.408 g/cm^3
         A              B              C           ALPHA      BETA       GAMMA 
    11.75518573     7.07470850    17.13405748    90.000000  90.000000  90.000000
 *******************************************************************************
 ATOMS IN THE ASYMMETRIC UNIT   20 - ATOMS IN THE UNIT CELL:  160
     ATOM                 X/A                 Y/B                 Z/C    
 *******************************************************************************
      1 T   8 O    -2.374471064790E-01  2.469223553488E-01 -3.696413182025E-01
      2 F   8 O    -2.625528935218E-01 -2.469223553488E-01  1.303586817981E-01
      3 F   8 O     2.625528935201E-01  2.530776446505E-01  3.696413182025E-01
      4 F   8 O     2.374471064790E-01 -2.530776446519E-01 -1.303586817969E-01
      5 F   8 O     2.374471064790E-01 -2.469223553488E-01  3.696413182025E-01
      6 F   8 O     2.625528935201E-01  2.469223553488E-01 -1.303586817969E-01
      7 F   8 O    -2.625528935218E-01 -2.530776446519E-01 -3.696413182025E-01
      8 F   8 O    -2.374471064790E-01  2.530776446505E-01  1.303586817981E-01
      9 T   8 O    -1.053504692476E-01  2.730057260455E-01  2.354400580047E-03
     10 F   8 O    -3.946495307533E-01 -2.730057260455E-01 -4.976455994194E-01
     11 F   8 O     3.946495307516E-01  2.269942739538E-01 -2.354400580047E-03
     12 F   8 O     1.053504692476E-01 -2.269942739552E-01  4.976455994205E-01
     13 F   8 O     1.053504692476E-01 -2.730057260455E-01 -2.354400580047E-03
     14 F   8 O     3.946495307516E-01  2.730057260455E-01  4.976455994205E-01
     15 F   8 O    -3.946495307533E-01 -2.269942739552E-01  2.354400580047E-03
     16 F   8 O    -1.053504692476E-01  2.269942739538E-01 -4.976455994194E-01
     17 T   7 N     1.568284953815E-02  2.053197194206E-01 -9.647803870349E-02
     18 F   7 N     4.843171504610E-01 -2.053197194206E-01  4.035219612971E-01
     19 F   7 N    -4.843171504627E-01  2.946802805787E-01  9.647803870349E-02
     20 F   7 N    -1.568284953815E-02 -2.946802805801E-01 -4.035219612959E-01
     21 F   7 N    -1.568284953815E-02 -2.053197194206E-01  9.647803870349E-02
     22 F   7 N    -4.843171504627E-01  2.053197194206E-01 -4.035219612959E-01
     23 F   7 N     4.843171504610E-01 -2.946802805801E-01 -9.647803870349E-02
     24 F   7 N     1.568284953815E-02  2.946802805787E-01  4.035219612971E-01
     25 T   6 C    -1.784595965308E-01  2.301299431953E-01 -3.024848024863E-01
     26 F   6 C    -3.215404034701E-01 -2.301299431953E-01  1.975151975143E-01
     27 F   6 C     3.215404034684E-01  2.698700568039E-01  3.024848024863E-01
     28 F   6 C     1.784595965308E-01 -2.698700568054E-01 -1.975151975132E-01
     29 F   6 C     1.784595965308E-01 -2.301299431953E-01  3.024848024863E-01
     30 F   6 C     3.215404034684E-01  2.301299431953E-01 -1.975151975132E-01
     31 F   6 C    -3.215404034701E-01 -2.698700568054E-01 -3.024848024863E-01
     32 F   6 C    -1.784595965308E-01  2.698700568039E-01  1.975151975143E-01
     33 T   6 C    -5.598164295651E-02  2.103845500402E-01 -1.622229874477E-01
     34 F   6 C    -4.440183570443E-01 -2.103845500402E-01  3.377770125528E-01
     35 F   6 C     4.440183570426E-01  2.896154499591E-01  1.622229874477E-01
     36 F   6 C     5.598164295651E-02 -2.896154499605E-01 -3.377770125517E-01
     37 F   6 C     5.598164295651E-02 -2.103845500402E-01  1.622229874477E-01
     38 F   6 C     4.440183570426E-01  2.103845500402E-01 -3.377770125517E-01
     39 F   6 C    -4.440183570443E-01 -2.896154499605E-01 -1.622229874477E-01
     40 F   6 C    -5.598164295651E-02  2.896154499591E-01  3.377770125528E-01
     41 T   6 C    -1.642774747689E-01  2.900513902961E-01 -1.640529267124E-01
     42 F   6 C    -3.357225252319E-01 -2.900513902961E-01  3.359470732882E-01
     43 F   6 C     3.357225252302E-01  2.099486097032E-01  1.640529267124E-01
     44 F   6 C     1.642774747689E-01 -2.099486097046E-01 -3.359470732870E-01
     45 F   6 C     1.642774747689E-01 -2.900513902961E-01  1.640529267124E-01
     46 F   6 C     3.357225252302E-01  2.900513902961E-01 -3.359470732870E-01
     47 F   6 C    -3.357225252319E-01 -2.099486097046E-01 -1.640529267124E-01
     48 F   6 C    -1.642774747689E-01  2.099486097032E-01  3.359470732882E-01
     49 T   6 C    -2.246521309497E-01  2.994423411066E-01 -2.335217932037E-01
     50 F   6 C    -2.753478690511E-01 -2.994423411066E-01  2.664782067968E-01
     51 F   6 C     2.753478690494E-01  2.005576588927E-01  2.335217932037E-01
     52 F   6 C     2.246521309497E-01 -2.005576588942E-01 -2.664782067957E-01
     53 F   6 C     2.246521309497E-01 -2.994423411066E-01  2.335217932037E-01
     54 F   6 C     2.753478690494E-01  2.994423411066E-01 -2.664782067957E-01
     55 F   6 C    -2.753478690511E-01 -2.005576588942E-01 -2.335217932037E-01
     56 F   6 C    -2.246521309497E-01  2.005576588927E-01  2.664782067968E-01
     57 T   6 C     9.167194681364E-02  2.205978998976E-01  3.298505275563E-02
     58 F   6 C     4.083280531855E-01 -2.205978998976E-01 -4.670149472438E-01
     59 F   6 C    -4.083280531872E-01  2.794021001017E-01 -3.298505275563E-02
     60 F   6 C    -9.167194681364E-02 -2.794021001031E-01  4.670149472450E-01
     61 F   6 C    -9.167194681364E-02 -2.205978998976E-01 -3.298505275563E-02
     62 F   6 C    -4.083280531872E-01  2.205978998976E-01  4.670149472450E-01
     63 F   6 C     4.083280531855E-01 -2.794021001031E-01  3.298505275563E-02
     64 F   6 C     9.167194681364E-02  2.794021001017E-01 -4.670149472438E-01
     65 T   6 C    -7.215824850929E-02  1.439919260572E-01 -2.999943460388E-01
     66 F   6 C    -4.278417514916E-01 -1.439919260572E-01  2.000056539618E-01
     67 F   6 C     4.278417514899E-01  3.560080739421E-01  2.999943460388E-01
     68 F   6 C     7.215824850929E-02 -3.560080739435E-01 -2.000056539607E-01
     69 F   6 C     7.215824850929E-02 -1.439919260572E-01  2.999943460388E-01
     70 F   6 C     4.278417514899E-01  1.439919260572E-01 -2.000056539607E-01
     71 F   6 C    -4.278417514916E-01 -3.560080739435E-01 -2.999943460388E-01
     72 F   6 C    -7.215824850929E-02  3.560080739421E-01  2.000056539618E-01
     73 T   6 C    -8.993302558273E-03  2.345254288386E-01 -2.102200784433E-02
     74 F   6 C    -4.910066974426E-01 -2.345254288386E-01  4.789779921563E-01
     75 F   6 C     4.910066974409E-01  2.654745711607E-01  2.102200784433E-02
     76 F   6 C     8.993302558273E-03 -2.654745711622E-01 -4.789779921551E-01
     77 F   6 C     8.993302558273E-03 -2.345254288386E-01  2.102200784433E-02
     78 F   6 C     4.910066974409E-01  2.345254288386E-01 -4.789779921551E-01
     79 F   6 C    -4.910066974426E-01 -2.654745711622E-01 -2.102200784433E-02
     80 F   6 C    -8.993302558273E-03  2.654745711607E-01  4.789779921563E-01
     81 T   6 C    -1.190163200140E-02  1.350393143222E-01 -2.309253618956E-01
     82 F   6 C    -4.880983679995E-01 -1.350393143222E-01  2.690746381050E-01
     83 F   6 C     4.880983679977E-01  3.649606856770E-01  2.309253618956E-01
     84 F   6 C     1.190163200140E-02 -3.649606856785E-01 -2.690746381039E-01
     85 F   6 C     1.190163200140E-02 -1.350393143222E-01  2.309253618956E-01
     86 F   6 C     4.880983679977E-01  1.350393143222E-01 -2.690746381039E-01
     87 F   6 C    -4.880983679995E-01 -3.649606856785E-01 -2.309253618956E-01
     88 F   6 C    -1.190163200140E-02  3.649606856770E-01  2.690746381050E-01
     89 T   1 H    -1.865650731001E-01  2.302367801313E-01 -4.145799920109E-01
     90 F   1 H    -3.134349269007E-01 -2.302367801313E-01  8.542000798964E-02
     91 F   1 H     3.134349268990E-01  2.697632198680E-01  4.145799920109E-01
     92 F   1 H     1.865650731001E-01 -2.697632198694E-01 -8.542000798847E-02
     93 F   1 H     1.865650731001E-01 -2.302367801313E-01  4.145799920109E-01
     94 F   1 H     3.134349268990E-01  2.302367801313E-01 -8.542000798847E-02
     95 F   1 H    -3.134349269007E-01 -2.697632198694E-01 -4.145799920109E-01
     96 F   1 H    -1.865650731001E-01  2.697632198680E-01  8.542000798964E-02
     97 T   1 H     9.936136120739E-02  1.869556257332E-01 -1.092241462021E-01
     98 F   1 H     4.006386387918E-01 -1.869556257332E-01  3.907758537985E-01
     99 F   1 H    -4.006386387935E-01  3.130443742661E-01  1.092241462021E-01
    100 F   1 H    -9.936136120739E-02 -3.130443742675E-01 -3.907758537973E-01
    101 F   1 H    -9.936136120739E-02 -1.869556257332E-01  1.092241462021E-01
    102 F   1 H    -4.006386387935E-01  1.869556257332E-01 -3.907758537973E-01
    103 F   1 H     4.006386387918E-01 -3.130443742675E-01 -1.092241462021E-01
    104 F   1 H     9.936136120739E-02  3.130443742661E-01  3.907758537985E-01
    105 T   1 H    -2.020123479251E-01  3.492377666507E-01 -1.122703391271E-01
    106 F   1 H    -2.979876520758E-01 -3.492377666507E-01  3.877296608735E-01
    107 F   1 H     2.979876520741E-01  1.507622333486E-01  1.122703391271E-01
    108 F   1 H     2.020123479251E-01 -1.507622333500E-01 -3.877296608723E-01
    109 F   1 H     2.020123479251E-01 -3.492377666507E-01  1.122703391271E-01
    110 F   1 H     2.979876520741E-01  3.492377666507E-01 -3.877296608723E-01
    111 F   1 H    -2.979876520758E-01 -1.507622333500E-01 -1.122703391271E-01
    112 F   1 H    -2.020123479251E-01  1.507622333486E-01  3.877296608735E-01
    113 T   1 H    -3.078110437733E-01  3.650151465447E-01 -2.338606419111E-01
    114 F   1 H    -1.921889562276E-01 -3.650151465447E-01  2.661393580895E-01
    115 F   1 H     1.921889562259E-01  1.349848534546E-01  2.338606419111E-01
    116 F   1 H     3.078110437733E-01 -1.349848534560E-01 -2.661393580884E-01
    117 F   1 H     3.078110437733E-01 -3.650151465447E-01  2.338606419111E-01
    118 F   1 H     1.921889562259E-01  3.650151465447E-01 -2.661393580884E-01
    119 F   1 H    -1.921889562276E-01 -1.349848534560E-01 -2.338606419111E-01
    120 F   1 H    -3.078110437733E-01  1.349848534546E-01  2.661393580895E-01
    121 T   1 H     1.319504234319E-01  3.589573344822E-01  3.823319485232E-02
    122 F   1 H     3.680495765672E-01 -3.589573344822E-01 -4.617668051471E-01
    123 F   1 H    -3.680495765689E-01  1.410426655170E-01 -3.823319485232E-02
    124 F   1 H    -1.319504234319E-01 -1.410426655185E-01  4.617668051483E-01
    125 F   1 H    -1.319504234319E-01 -3.589573344822E-01 -3.823319485232E-02
    126 F   1 H    -3.680495765689E-01  3.589573344822E-01  4.617668051483E-01
    127 F   1 H     3.680495765672E-01 -1.410426655185E-01  3.823319485232E-02
    128 F   1 H     1.319504234319E-01  1.410426655170E-01 -4.617668051471E-01
    129 T   1 H     1.555843937347E-01  1.215954288817E-01  1.209505474973E-02
    130 F   1 H     3.444156062644E-01 -1.215954288817E-01 -4.879049452497E-01
    131 F   1 H    -3.444156062661E-01  3.784045711176E-01 -1.209505474973E-02
    132 F   1 H    -1.555843937347E-01 -3.784045711190E-01  4.879049452509E-01
    133 F   1 H    -1.555843937347E-01 -1.215954288817E-01 -1.209505474973E-02
    134 F   1 H    -3.444156062661E-01  1.215954288817E-01  4.879049452509E-01
    135 F   1 H     3.444156062644E-01 -3.784045711190E-01  1.209505474973E-02
    136 F   1 H     1.555843937347E-01  3.784045711176E-01 -4.879049452497E-01
    137 T   1 H     6.450739595646E-02  1.766210691836E-01  9.082151523049E-02
    138 F   1 H     4.354926040427E-01 -1.766210691836E-01 -4.091784847689E-01
    139 F   1 H    -4.354926040444E-01  3.233789308157E-01 -9.082151523049E-02
    140 F   1 H    -6.450739595646E-02 -3.233789308171E-01  4.091784847701E-01
    141 F   1 H    -6.450739595646E-02 -1.766210691836E-01 -9.082151523049E-02
    142 F   1 H    -4.354926040444E-01  1.766210691836E-01  4.091784847701E-01
    143 F   1 H     4.354926040427E-01 -3.233789308171E-01  9.082151523049E-02
    144 F   1 H     6.450739595646E-02  3.233789308157E-01 -4.091784847689E-01
    145 T   1 H    -3.612522790822E-02  8.140938076720E-02 -3.519443992699E-01
    146 F   1 H    -4.638747720926E-01 -8.140938076720E-02  1.480556007307E-01
    147 F   1 H     4.638747720909E-01  4.185906192321E-01  3.519443992699E-01
    148 F   1 H     3.612522790822E-02 -4.185906192335E-01 -1.480556007295E-01
    149 F   1 H     3.612522790822E-02 -8.140938076720E-02  3.519443992699E-01
    150 F   1 H     4.638747720909E-01  8.140938076720E-02 -1.480556007295E-01
    151 F   1 H    -4.638747720926E-01 -4.185906192335E-01 -3.519443992699E-01
    152 F   1 H    -3.612522790822E-02  4.185906192321E-01  1.480556007307E-01
    153 T   1 H     7.095278872546E-02  6.811304401143E-02 -2.311337106564E-01
    154 F   1 H     4.290472112737E-01 -6.811304401143E-02  2.688662893442E-01
    155 F   1 H    -4.290472112754E-01  4.318869559879E-01  2.311337106564E-01
    156 F   1 H    -7.095278872546E-02 -4.318869559893E-01 -2.688662893430E-01
    157 F   1 H    -7.095278872546E-02 -6.811304401143E-02  2.311337106564E-01
    158 F   1 H    -4.290472112754E-01  6.811304401143E-02 -2.688662893430E-01
    159 F   1 H     4.290472112737E-01 -4.318869559893E-01 -2.311337106564E-01
    160 F   1 H     7.095278872546E-02  4.318869559879E-01  2.688662893442E-01

 T = ATOM BELONGING TO THE ASYMMETRIC UNIT

 ****    8 SYMMOPS - TRANSLATORS IN FRACTIONAL UNITS
 **** MATRICES AND TRANSLATORS IN THE CRYSTALLOGRAPHIC REFERENCE FRAME
   V INV                    ROTATION MATRICES                   TRANSLATORS
   1   1  1.00  0.00  0.00  0.00  1.00  0.00  0.00  0.00  1.00  0.00  0.00  0.00
   2   2 -1.00  0.00  0.00  0.00 -1.00  0.00  0.00  0.00  1.00  0.50  0.00  0.50
   3   3  1.00  0.00  0.00  0.00 -1.00  0.00  0.00  0.00 -1.00  0.50  0.50  0.00
   4   4 -1.00  0.00  0.00  0.00  1.00  0.00  0.00  0.00 -1.00  0.00  0.50  0.50
   5   5 -1.00  0.00  0.00  0.00 -1.00  0.00  0.00  0.00 -1.00  0.00  0.00  0.00
   6   6  1.00  0.00  0.00  0.00  1.00  0.00  0.00  0.00 -1.00  0.50  0.00  0.50
   7   7 -1.00  0.00  0.00  0.00  1.00  0.00  0.00  0.00  1.00  0.50  0.50  0.00
   8   8  1.00  0.00  0.00  0.00 -1.00  0.00  0.00  0.00  1.00  0.00  0.50  0.50

 DIRECT LATTICE VECTORS CARTESIAN COMPONENTS (ANGSTROM)
          X                    Y                    Z
   0.117551857276E+02   0.000000000000E+00   0.000000000000E+00
   0.000000000000E+00   0.707470849895E+01   0.000000000000E+00
   0.000000000000E+00   0.000000000000E+00   0.171340574764E+02


 CARTESIAN COORDINATES - PRIMITIVE CELL
 *******************************************************************************
 *      ATOM          X(ANGSTROM)         Y(ANGSTROM)         Z(ANGSTROM)
 *******************************************************************************
    1     8 O    -2.791234837142E+00  1.746903685967E+00 -6.333455591734E+00
    2     8 O    -3.086358026668E+00 -1.746903685967E+00  2.233573146476E+00
    3     8 O     3.086358026648E+00  1.790450563503E+00  6.333455591734E+00
    4     8 O     2.791234837142E+00 -1.790450563513E+00 -2.233573146456E+00
    5     8 O     2.791234837142E+00 -1.746903685967E+00  6.333455591734E+00
    6     8 O     3.086358026648E+00  1.746903685967E+00 -2.233573146456E+00
    7     8 O    -3.086358026668E+00 -1.790450563513E+00 -6.333455591734E+00
    8     8 O    -2.791234837142E+00  1.790450563503E+00  2.233573146476E+00
    9     8 O    -1.238414332495E+00  1.931435930316E+00  4.034043486100E-02
   10     8 O    -4.639178531315E+00 -1.931435930316E+00 -8.526688303329E+00
   11     8 O     4.639178531295E+00  1.605918319154E+00 -4.034043486100E-02
   12     8 O     1.238414332495E+00 -1.605918319164E+00  8.526688303349E+00
   13     8 O     1.238414332495E+00 -1.931435930316E+00 -4.034043486100E-02
   14     8 O     4.639178531295E+00  1.931435930316E+00  8.526688303349E+00
   15     8 O    -4.639178531315E+00 -1.605918319164E+00  4.034043486100E-02
   16     8 O    -1.238414332495E+00  1.605918319154E+00 -8.526688303329E+00
   17     7 N     1.843548090590E-01  1.452577163987E+00 -1.653060260356E+00
   18     7 N     5.693238054731E+00 -1.452577163987E+00  6.913968477854E+00
   19     7 N    -5.693238054751E+00  2.084777085483E+00  1.653060260356E+00
   20     7 N    -1.843548090590E-01 -2.084777085493E+00 -6.913968477834E+00
   21     7 N    -1.843548090590E-01 -1.452577163987E+00  1.653060260356E+00
   22     7 N    -5.693238054751E+00  1.452577163987E+00 -6.913968477834E+00
   23     7 N     5.693238054731E+00 -2.084777085493E+00 -1.653060260356E+00
   24     7 N     1.843548090590E-01  2.084777085483E+00  6.913968477854E+00
   25     6 C    -2.097825702092E+00  1.628102264987E+00 -5.182791991537E+00
   26     6 C    -3.779767161718E+00 -1.628102264987E+00  3.384236746673E+00
   27     6 C     3.779767161698E+00  1.909251984483E+00  5.182791991537E+00
   28     6 C     2.097825702092E+00 -1.909251984493E+00 -3.384236746653E+00
   29     6 C     2.097825702092E+00 -1.628102264987E+00  5.182791991537E+00
   30     6 C     3.779767161698E+00  1.628102264987E+00 -3.384236746653E+00
   31     6 C    -3.779767161718E+00 -1.909251984493E+00 -5.182791991537E+00
   32     6 C    -2.097825702092E+00  1.909251984483E+00  3.384236746673E+00
   33     6 C    -6.580746102900E-01  1.488409364217E+00 -2.779537990923E+00
   34     6 C    -5.219518253520E+00 -1.488409364217E+00  5.787490747287E+00
   35     6 C     5.219518253500E+00  2.048944885253E+00  2.779537990923E+00
   36     6 C     6.580746102900E-01 -2.048944885263E+00 -5.787490747267E+00
   37     6 C     6.580746102900E-01 -1.488409364217E+00  2.779537990923E+00
   38     6 C     5.219518253500E+00  1.488409364217E+00 -5.787490747267E+00
   39     6 C    -5.219518253520E+00 -2.048944885263E+00 -2.779537990923E+00
   40     6 C    -6.580746102900E-01  2.048944885253E+00  5.787490747287E+00
   41     6 C    -1.931112226770E+00  2.052029036060E+00 -2.810892275462E+00
   42     6 C    -3.946480637040E+00 -2.052029036060E+00  5.756136462748E+00
   43     6 C     3.946480637020E+00  1.485325213410E+00  2.810892275462E+00
   44     6 C     1.931112226770E+00 -1.485325213420E+00 -5.756136462728E+00
   45     6 C     1.931112226770E+00 -2.052029036060E+00  2.810892275462E+00
   46     6 C     3.946480637020E+00  2.052029036060E+00 -5.756136462728E+00
   47     6 C    -3.946480637040E+00 -1.485325213420E+00 -2.810892275462E+00
   48     6 C    -1.931112226770E+00  1.485325213410E+00  5.756136462748E+00
   49     6 C    -2.640827523415E+00  2.118467275572E+00 -4.001175826745E+00
   50     6 C    -3.236765340395E+00 -2.118467275572E+00  4.565852911465E+00
   51     6 C     3.236765340375E+00  1.418886973898E+00  4.001175826745E+00
   52     6 C     2.640827523415E+00 -1.418886973908E+00 -4.565852911445E+00
   53     6 C     2.640827523415E+00 -2.118467275572E+00  4.001175826745E+00
   54     6 C     3.236765340375E+00  2.118467275572E+00 -4.565852911445E+00
   55     6 C    -3.236765340395E+00 -1.418886973908E+00 -4.001175826745E+00
   56     6 C    -2.640827523415E+00  1.418886973898E+00  4.565852911465E+00
   57     6 C     1.077620760805E+00  1.560665837256E+00  5.651677897770E-01
   58     6 C     4.799972102985E+00 -1.560665837256E+00 -8.001860948413E+00
   59     6 C    -4.799972103005E+00  1.976688412214E+00 -5.651677897770E-01
   60     6 C    -1.077620760805E+00 -1.976688412224E+00  8.001860948433E+00
   61     6 C    -1.077620760805E+00 -1.560665837256E+00 -5.651677897770E-01
   62     6 C    -4.799972103005E+00  1.560665837256E+00  8.001860948433E+00
   63     6 C     4.799972102985E+00 -1.976688412224E+00  5.651677897770E-01
   64     6 C     1.077620760805E+00  1.976688412214E+00 -8.001860948413E+00
   65     6 C    -8.482336130050E-01  1.018700903057E+00 -5.140120367623E+00
   66     6 C    -5.029359250805E+00 -1.018700903057E+00  3.426908370587E+00
   67     6 C     5.029359250785E+00  2.518653346413E+00  5.140120367623E+00
   68     6 C     8.482336130050E-01 -2.518653346423E+00 -3.426908370567E+00
   69     6 C     8.482336130050E-01 -1.018700903057E+00  5.140120367623E+00
   70     6 C     5.029359250785E+00  1.018700903057E+00 -3.426908370567E+00
   71     6 C    -5.029359250805E+00 -2.518653346423E+00 -5.140120367623E+00
   72     6 C    -8.482336130050E-01  2.518653346413E+00  3.426908370587E+00
   73     6 C    -1.057179418770E-01  1.659199044624E+00 -3.601922906740E-01
   74     6 C    -5.771874921933E+00 -1.659199044624E+00  8.206836447536E+00
   75     6 C     5.771874921913E+00  1.878155204846E+00  3.601922906740E-01
   76     6 C     1.057179418770E-01 -1.878155204856E+00 -8.206836447516E+00
   77     6 C     1.057179418770E-01 -1.659199044624E+00  3.601922906740E-01
   78     6 C     5.771874921913E+00  1.659199044624E+00 -8.206836447516E+00
   79     6 C    -5.771874921933E+00 -1.878155204856E+00 -3.601922906740E-01
   80     6 C    -1.057179418770E-01  1.878155204846E+00  8.206836447536E+00
   81     6 C    -1.399058946380E-01  9.553637847280E-01 -3.956688423477E+00
   82     6 C    -5.737686969172E+00 -9.553637847280E-01  4.610340314733E+00
   83     6 C     5.737686969152E+00  2.581990464742E+00  3.956688423477E+00
   84     6 C     1.399058946380E-01 -2.581990464752E+00 -4.610340314713E+00
   85     6 C     1.399058946380E-01 -9.553637847280E-01  3.956688423477E+00
   86     6 C     5.737686969152E+00  9.553637847280E-01 -4.610340314713E+00
   87     6 C    -5.737686969172E+00 -2.581990464752E+00 -3.956688423477E+00
   88     6 C    -1.399058946380E-01  2.581990464742E+00  4.610340314733E+00
   89     1 H    -2.193107084575E+00  1.628858105166E+00 -7.103437411681E+00
   90     1 H    -3.684485779235E+00 -1.628858105166E+00  1.463591326529E+00
   91     1 H     3.684485779215E+00  1.908496144304E+00  7.103437411681E+00
   92     1 H     2.193107084575E+00 -1.908496144314E+00 -1.463591326509E+00
   93     1 H     2.193107084575E+00 -1.628858105166E+00  7.103437411681E+00
   94     1 H     3.684485779215E+00  1.628858105166E+00 -1.463591326509E+00
   95     1 H    -3.684485779235E+00 -1.908496144314E+00 -7.103437411681E+00
   96     1 H    -2.193107084575E+00  1.908496144304E+00  1.463591326529E+00
   97     1 H     1.168011255140E+00  1.322656554301E+00 -1.871452798837E+00
   98     1 H     4.709581608650E+00 -1.322656554301E+00  6.695575939373E+00
   99     1 H    -4.709581608670E+00  2.214697695169E+00  1.871452798837E+00
  100     1 H    -1.168011255140E+00 -2.214697695179E+00 -6.695575939353E+00
  101     1 H    -1.168011255140E+00 -1.322656554301E+00  1.871452798837E+00
  102     1 H    -4.709581608670E+00  1.322656554301E+00 -6.695575939353E+00
  103     1 H     4.709581608650E+00 -2.214697695179E+00 -1.871452798837E+00
  104     1 H     1.168011255140E+00  2.214697695169E+00  6.695575939373E+00
  105     1 H    -2.374692669128E+00  2.470755395878E+00 -1.923646443499E+00
  106     1 H    -3.502900194682E+00 -2.470755395878E+00  6.643382294711E+00
  107     1 H     3.502900194662E+00  1.066598853592E+00  1.923646443499E+00
  108     1 H     2.374692669128E+00 -1.066598853602E+00 -6.643382294691E+00
  109     1 H     2.374692669128E+00 -2.470755395878E+00  1.923646443499E+00
  110     1 H     3.502900194662E+00  2.470755395878E+00 -6.643382294691E+00
  111     1 H    -3.502900194682E+00 -1.066598853602E+00 -1.923646443499E+00
  112     1 H    -2.374692669128E+00  1.066598853592E+00  6.643382294711E+00
  113     1 H    -3.618375988561E+00  2.582375759505E+00 -4.006981679972E+00
  114     1 H    -2.259216875249E+00 -2.582375759505E+00  4.560047058238E+00
  115     1 H     2.259216875229E+00  9.549784899650E-01  4.006981679972E+00
  116     1 H     3.618375988561E+00 -9.549784899750E-01 -4.560047058218E+00
  117     1 H     3.618375988561E+00 -2.582375759505E+00  4.006981679972E+00
  118     1 H     2.259216875229E+00  2.582375759505E+00 -4.560047058218E+00
  119     1 H    -2.259216875249E+00 -9.549784899750E-01 -4.006981679972E+00
  120     1 H    -3.618375988561E+00  9.549784899650E-01  4.560047058238E+00
  121     1 H     1.551101734278E+00  2.539518505022E+00  6.550897581060E-01
  122     1 H     4.326491129512E+00 -2.539518505022E+00 -7.911938980084E+00
  123     1 H    -4.326491129532E+00  9.978357444480E-01 -6.550897581060E-01
  124     1 H    -1.551101734278E+00 -9.978357444580E-01  7.911938980104E+00
  125     1 H    -1.551101734278E+00 -2.539518505022E+00 -6.550897581060E-01
  126     1 H    -4.326491129532E+00  2.539518505022E+00  7.911938980104E+00
  127     1 H     4.326491129512E+00 -9.978357444580E-01  6.550897581060E-01
  128     1 H     1.551101734278E+00  9.978357444480E-01 -7.911938980084E+00
  129     1 H     1.828923444668E+00  8.602522141430E-01  2.072373632620E-01
  130     1 H     4.048669419122E+00 -8.602522141430E-01 -8.359791374928E+00
  131     1 H    -4.048669419142E+00  2.677102035327E+00 -2.072373632620E-01
  132     1 H    -1.828923444668E+00 -2.677102035337E+00  8.359791374948E+00
  133     1 H    -1.828923444668E+00 -8.602522141430E-01 -2.072373632620E-01
  134     1 H    -4.048669419142E+00  8.602522141430E-01  8.359791374948E+00
  135     1 H     4.048669419122E+00 -2.677102035337E+00  2.072373632620E-01
  136     1 H     1.828923444668E+00  2.677102035327E+00 -8.359791374928E+00
  137     1 H     7.582964202720E-01  1.249542579247E+00  1.556141062053E+00
  138     1 H     5.119296443518E+00 -1.249542579247E+00 -7.010887676137E+00
  139     1 H    -5.119296443538E+00  2.287811670223E+00 -1.556141062053E+00
  140     1 H    -7.582964202720E-01 -2.287811670233E+00  7.010887676157E+00
  141     1 H    -7.582964202720E-01 -1.249542579247E+00 -1.556141062053E+00
  142     1 H    -5.119296443538E+00  1.249542579247E+00  7.010887676157E+00
  143     1 H     5.119296443518E+00 -2.287811670233E+00  1.556141062053E+00
  144     1 H     7.582964202720E-01  2.287811670223E+00 -7.010887676137E+00
  145     1 H    -4.246587635130E-01  5.759476380080E-01 -6.030235565587E+00
  146     1 H    -5.452934100297E+00 -5.759476380080E-01  2.536793172623E+00
  147     1 H     5.452934100277E+00  2.961406611462E+00  6.030235565587E+00
  148     1 H     4.246587635130E-01 -2.961406611472E+00 -2.536793172603E+00
  149     1 H     4.246587635130E-01 -5.759476380080E-01  6.030235565587E+00
  150     1 H     5.452934100277E+00  5.759476380080E-01 -2.536793172603E+00
  151     1 H    -5.452934100297E+00 -2.961406611472E+00 -6.030235565587E+00
  152     1 H    -4.246587635130E-01  2.961406611462E+00  2.536793172623E+00
  153     1 H     8.340632093590E-01  4.818799313570E-01 -3.960258283120E+00
  154     1 H     5.043529654431E+00 -4.818799313570E-01  4.606770455090E+00
  155     1 H    -5.043529654451E+00  3.055474318113E+00  3.960258283120E+00
  156     1 H    -8.340632093590E-01 -3.055474318123E+00 -4.606770455070E+00
  157     1 H    -8.340632093590E-01 -4.818799313570E-01  3.960258283120E+00
  158     1 H    -5.043529654451E+00  4.818799313570E-01 -4.606770455070E+00
  159     1 H     5.043529654431E+00 -3.055474318123E+00 -3.960258283120E+00
  160     1 H     8.340632093590E-01  3.055474318113E+00  4.606770455090E+00

 *******************************************************************************
 STARTING BASIS SET HANDLING 
 *******************************************************************************

 Loading internal basis set: DEF2-MSVP           

 Please cite in your publication:
 Fully Optimized Contracted Gaussian Basis Sets for Atoms Li to Kr. A. Schfer, H. Horn and R. Ahlrichs; J. Chem. Phys. 97, 2571 (1992).                                                                                                                         
 S. Grimme, J. G. Brandenburg, C. Bannwarth, and A. Hansen, J. Chem. Phys., 143, 054107 (2015).                                                                                                                                                                  

 *******************************************************************************
 LOCAL ATOMIC FUNCTIONS BASIS SET
 *******************************************************************************
   ATOM   X(AU)   Y(AU)   Z(AU)  N. TYPE  EXPONENT  S COEF   P COEF   D/F/G COEF
 *******************************************************************************
   1 O   -5.275   3.301 -11.968
                                  1 S  
                                         6.773E+03 1.727E-03 0.000E+00 0.000E+00
                                         1.017E+03 1.325E-02 0.000E+00 0.000E+00
                                         2.313E+02 6.603E-02 0.000E+00 0.000E+00
                                         6.501E+01 2.353E-01 0.000E+00 0.000E+00
                                         2.050E+01 5.498E-01 0.000E+00 0.000E+00
                                  2 S  
                                         6.716E+00 1.000E+00 0.000E+00 0.000E+00
                                  3 S  
                                         1.147E+00 1.000E+00 0.000E+00 0.000E+00
                                  4 S  
                                         3.342E-01 1.000E+00 0.000E+00 0.000E+00
                           5-     7 P  
                                         1.769E+01 0.000E+00 4.359E-02 0.000E+00
                                         3.854E+00 0.000E+00 2.318E-01 0.000E+00
                                         1.047E+00 0.000E+00 5.146E-01 0.000E+00
                           8-    10 P  
                                         2.759E-01 0.000E+00 1.000E+00 0.000E+00
                          11-    15 D  
                                         8.000E-01 0.000E+00 0.000E+00 1.000E+00
   2 O   -5.832  -3.301   4.221
   3 O    5.832   3.383  11.968
   4 O    5.275  -3.383  -4.221
   5 O    5.275  -3.301  11.968
   6 O    5.832   3.301  -4.221
   7 O   -5.832  -3.383 -11.968
   8 O   -5.275   3.383   4.221
   9 O   -2.340   3.650   0.076
  10 O   -8.767  -3.650 -16.113
  11 O    8.767   3.035  -0.076
  12 O    2.340  -3.035  16.113
  13 O    2.340  -3.650  -0.076
  14 O    8.767   3.650  16.113
  15 O   -8.767  -3.035   0.076
  16 O   -2.340   3.035 -16.113
  17 N    0.348   2.745  -3.124
                                241 S  
                                         5.072E+03 1.707E-03 0.000E+00 0.000E+00
                                         7.614E+02 1.309E-02 0.000E+00 0.000E+00
                                         1.732E+02 6.510E-02 0.000E+00 0.000E+00
                                         4.867E+01 2.305E-01 0.000E+00 0.000E+00
                                         1.533E+01 5.330E-01 0.000E+00 0.000E+00
                                242 S  
                                         5.019E+00 1.000E+00 0.000E+00 0.000E+00
                                243 S  
                                         8.355E-01 1.000E+00 0.000E+00 0.000E+00
                                244 S  
                                         2.463E-01 1.000E+00 0.000E+00 0.000E+00
                         245-   247 P  
                                         1.355E+01 0.000E+00 4.063E-02 0.000E+00
                                         2.918E+00 0.000E+00 2.209E-01 0.000E+00
                                         7.983E-01 0.000E+00 5.186E-01 0.000E+00
                         248-   250 P  
                                         2.190E-01 0.000E+00 1.000E+00 0.000E+00
                         251-   255 D  
                                         8.000E-01 0.000E+00 0.000E+00 1.000E+00
  18 N   10.759  -2.745  13.066
  19 N  -10.759   3.940   3.124
  20 N   -0.348  -3.940 -13.066
  21 N   -0.348  -2.745   3.124
  22 N  -10.759   2.745 -13.066
  23 N   10.759  -3.940  -3.124
  24 N    0.348   3.940  13.066
  25 C   -3.964   3.077  -9.794
                                361 S  
                                         3.624E+03 1.634E-03 0.000E+00 0.000E+00
                                         5.440E+02 1.252E-02 0.000E+00 0.000E+00
                                         1.237E+02 6.211E-02 0.000E+00 0.000E+00
                                         3.476E+01 2.182E-01 0.000E+00 0.000E+00
                                         1.093E+01 4.980E-01 0.000E+00 0.000E+00
                                362 S  
                                         3.574E+00 1.000E+00 0.000E+00 0.000E+00
                                363 S  
                                         5.748E-01 1.000E+00 0.000E+00 0.000E+00
                                364 S  
                                         1.730E-01 1.000E+00 0.000E+00 0.000E+00
                         365-   367 P  
                                         9.443E+00 0.000E+00 3.790E-02 0.000E+00
                                         2.002E+00 0.000E+00 2.082E-01 0.000E+00
                                         5.463E-01 0.000E+00 5.047E-01 0.000E+00
                         368-   370 P  
                                         1.520E-01 0.000E+00 1.000E+00 0.000E+00
                         371-   375 D  
                                         8.000E-01 0.000E+00 0.000E+00 1.000E+00
  26 C   -7.143  -3.077   6.395
  27 C    7.143   3.608   9.794
  28 C    3.964  -3.608  -6.395
  29 C    3.964  -3.077   9.794
  30 C    7.143   3.077  -6.395
  31 C   -7.143  -3.608  -9.794
  32 C   -3.964   3.608   6.395
  33 C   -1.244   2.813  -5.253
  34 C   -9.863  -2.813  10.937
  35 C    9.863   3.872   5.253
  36 C    1.244  -3.872 -10.937
  37 C    1.244  -2.813   5.253
  38 C    9.863   2.813 -10.937
  39 C   -9.863  -3.872  -5.253
  40 C   -1.244   3.872  10.937
  41 C   -3.649   3.878  -5.312
  42 C   -7.458  -3.878  10.878
  43 C    7.458   2.807   5.312
  44 C    3.649  -2.807 -10.878
  45 C    3.649  -3.878   5.312
  46 C    7.458   3.878 -10.878
  47 C   -7.458  -2.807  -5.312
  48 C   -3.649   2.807  10.878
  49 C   -4.990   4.003  -7.561
  50 C   -6.117  -4.003   8.628
  51 C    6.117   2.681   7.561
  52 C    4.990  -2.681  -8.628
  53 C    4.990  -4.003   7.561
  54 C    6.117   4.003  -8.628
  55 C   -6.117  -2.681  -7.561
  56 C   -4.990   2.681   8.628
  57 C    2.036   2.949   1.068
  58 C    9.071  -2.949 -15.121
  59 C   -9.071   3.735  -1.068
  60 C   -2.036  -3.735  15.121
  61 C   -2.036  -2.949  -1.068
  62 C   -9.071   2.949  15.121
  63 C    9.071  -3.735   1.068
  64 C    2.036   3.735 -15.121
  65 C   -1.603   1.925  -9.713
  66 C   -9.504  -1.925   6.476
  67 C    9.504   4.760   9.713
  68 C    1.603  -4.760  -6.476
  69 C    1.603  -1.925   9.713
  70 C    9.504   1.925  -6.476
  71 C   -9.504  -4.760  -9.713
  72 C   -1.603   4.760   6.476
  73 C   -0.200   3.135  -0.681
  74 C  -10.907  -3.135  15.509
  75 C   10.907   3.549   0.681
  76 C    0.200  -3.549 -15.509
  77 C    0.200  -3.135   0.681
  78 C   10.907   3.135 -15.509
  79 C  -10.907  -3.549  -0.681
  80 C   -0.200   3.549  15.509
  81 C   -0.264   1.805  -7.477
  82 C  -10.843  -1.805   8.712
  83 C   10.843   4.879   7.477
  84 C    0.264  -4.879  -8.712
  85 C    0.264  -1.805   7.477
  86 C   10.843   1.805  -8.712
  87 C  -10.843  -4.879  -7.477
  88 C   -0.264   4.879   8.712
  89 H   -4.144   3.078 -13.424
                               1321 S  
                                         1.874E+01 1.968E-02 0.000E+00 0.000E+00
                                         2.826E+00 1.380E-01 0.000E+00 0.000E+00
                                         6.401E-01 4.783E-01 0.000E+00 0.000E+00
                               1322 S  
                                         1.756E-01 1.000E+00 0.000E+00 0.000E+00
  90 H   -6.963  -3.078   2.766
  91 H    6.963   3.607  13.424
  92 H    4.144  -3.607  -2.766
  93 H    4.144  -3.078  13.424
  94 H    6.963   3.078  -2.766
  95 H   -6.963  -3.607 -13.424
  96 H   -4.144   3.607   2.766
  97 H    2.207   2.499  -3.537
  98 H    8.900  -2.499  12.653
  99 H   -8.900   4.185   3.537
 100 H   -2.207  -4.185 -12.653
 101 H   -2.207  -2.499   3.537
 102 H   -8.900   2.499 -12.653
 103 H    8.900  -4.185  -3.537
 104 H    2.207   4.185  12.653
 105 H   -4.488   4.669  -3.635
 106 H   -6.620  -4.669  12.554
 107 H    6.620   2.016   3.635
 108 H    4.488  -2.016 -12.554
 109 H    4.488  -4.669   3.635
 110 H    6.620   4.669 -12.554
 111 H   -6.620  -2.016  -3.635
 112 H   -4.488   2.016  12.554
 113 H   -6.838   4.880  -7.572
 114 H   -4.269  -4.880   8.617
 115 H    4.269   1.805   7.572
 116 H    6.838  -1.805  -8.617
 117 H    6.838  -4.880   7.572
 118 H    4.269   4.880  -8.617
 119 H   -4.269  -1.805  -7.572
 120 H   -6.838   1.805   8.617
 121 H    2.931   4.799   1.238
 122 H    8.176  -4.799 -14.951
 123 H   -8.176   1.886  -1.238
 124 H   -2.931  -1.886  14.951
 125 H   -2.931  -4.799  -1.238
 126 H   -8.176   4.799  14.951
 127 H    8.176  -1.886   1.238
 128 H    2.931   1.886 -14.951
 129 H    3.456   1.626   0.392
 130 H    7.651  -1.626 -15.798
 131 H   -7.651   5.059  -0.392
 132 H   -3.456  -5.059  15.798
 133 H   -3.456  -1.626  -0.392
 134 H   -7.651   1.626  15.798
 135 H    7.651  -5.059   0.392
 136 H    3.456   5.059 -15.798
 137 H    1.433   2.361   2.941
 138 H    9.674  -2.361 -13.249
 139 H   -9.674   4.323  -2.941
 140 H   -1.433  -4.323  13.249
 141 H   -1.433  -2.361  -2.941
 142 H   -9.674   2.361  13.249
 143 H    9.674  -4.323   2.941
 144 H    1.433   4.323 -13.249
 145 H   -0.802   1.088 -11.395
 146 H  -10.305  -1.088   4.794
 147 H   10.305   5.596  11.395
 148 H    0.802  -5.596  -4.794
 149 H    0.802  -1.088  11.395
 150 H   10.305   1.088  -4.794
 151 H  -10.305  -5.596 -11.395
 152 H   -0.802   5.596   4.794
 153 H    1.576   0.911  -7.484
 154 H    9.531  -0.911   8.706
 155 H   -9.531   5.774   7.484
 156 H   -1.576  -5.774  -8.706
 157 H   -1.576  -0.911   7.484
 158 H   -9.531   0.911  -8.706
 159 H    9.531  -5.774  -7.484
 160 H    1.576   5.774   8.706

 *******************************************************************************
 FINISHED BASIS SET HANDLING 
 *******************************************************************************

 INFORMATION **** SET_MPP **** PCRYSTAL CALCULATION
 INFORMATION **** READM2 **** NEW DEFAULT: FOCK/KS MATRIX MIXING SET TO 30 %
 INFORMATION **** READM2 **** NEW DEFAULT: FULL DIRECT SCF MODE
 INFORMATION **** READM2 **** NEW DEFAULT: COULOMB BIPOLAR BUFFER SET TO 32 Mb
 INFORMATION **** READM2 **** NEW DEFAULT: EXCHANGE BIPOLAR BUFFER SET TO 32 Mb

 *******************************************************************************
 NEW DEFAULT: DFT INTEGRATION GRID INCREASED TO XLGRID
 NEW DEFAULT: DIIS ACCELERATOR ACTIVE
 USE KEYWORD NODIIS TO TURN IT OFF
 *******************************************************************************

 INFORMATION **** RDDFTP **** PBEh-3c calculation
 INFORMATION **** RDDFTP **** PBEh hybrid functional combined with D3 and gCP

PLEASE CITE:
(1) PBEh-3c Reference
 S. Grimme, J. G. Brandenburg, C. Bannwarth, and A. Hansen, 
 J. Chem. Phys. 143, 054107 (2015)
(2) DFT-D3 Reference
 S. Grimme, J. Antony, S. Ehrlich, and H. Krieg, J. Chem. Phys. 132, 154104 (2010)
(3) gCP Reference
 H. Kruse and S. Grimme J. Chem. Phys, 136, 154101 (2012)
 J. G. Brandenburg, M. Alessio, B. Civalleri, M. F. Peintinger
 T. Bredow, and S. Grimme, J. Phys. Chem. A, 117, 9282 (2013) 

 WARNING **** RDDFTP **** PBEh-3c has to be combined with def2-mSVP basis set
 WARNING **** RDDFTP **** Note: Harmonic frequencies are scaled by 0.95
 WARNING **** RDDFTP **** as recommended in original publication
 INFORMATION **** TOLDEE **** SCF TOL ON TOTAL ENERGY SET TO           9
 INFORMATION **** TOLINTEG **** COULOMB AND EXCHANGE SERIES TOLERANCES MODIFIED
 INFORMATION **** MAXCYCLE **** MAX NUMBER OF SCF CYCLES SET TO          30
 WARNING **** READM2 **** PROBABLE LOSS IN FREQCALC ACCURACY; SCF TOL LT          10
 *******************************************************************************
 N. OF ATOMS PER CELL       160  COULOMB OVERLAP TOL         (T1) 10**   -8
 NUMBER OF SHELLS           760  COULOMB PENETRATION TOL     (T2) 10**   -8
 NUMBER OF AO              1464  EXCHANGE OVERLAP TOL        (T3) 10**   -8
 N. OF ELECTRONS PER CELL   640  EXCHANGE PSEUDO OVP (F(G))  (T4) 10**   -8
 CORE ELECTRONS PER CELL    176  EXCHANGE PSEUDO OVP (P(G))  (T5) 10**  -24
 N. OF SYMMETRY OPERATORS     8  POLE ORDER IN MONO ZONE                  4
 *******************************************************************************
 TYPE OF CALCULATION :  RESTRICTED CLOSED SHELL
 KOHN-SHAM HAMILTONIAN

 (EXCHANGE)[CORRELATION] FUNCTIONAL:(PBEh-3c)[PBEh-3c]


 HYBRID EXCHANGE - PERCENTAGE OF FOCK EXCHANGE    42.0000

 CAPPA:IS1  4;IS2  4;IS3  2; K PTS MONK NET  18; SYMMOPS:K SPACE   8;G SPACE   8

 *******************************************************************************
 MAX NUMBER OF SCF CYCLES      30  CONVERGENCE ON DELTAP        10**-19
 WEIGHT OF F(I) IN F(I+1)      50% CONVERGENCE ON ENERGY        10**- 9
 SHRINK. FACT.(MONKH.)    4  4  2  NUMBER OF K POINTS IN THE IBZ     18
 SHRINKING FACTOR(GILAT NET)    4  NUMBER OF K POINTS(GILAT NET)     18
 *******************************************************************************
 *** K POINTS COORDINATES (OBLIQUE COORDINATES IN UNITS OF IS =  4)
   1-R(  0  0  0)   2-C(  1  0  0)   3-R(  2  0  0)   4-C(  0  1  0)
   5-C(  1  1  0)   6-C(  2  1  0)   7-R(  0  2  0)   8-C(  1  2  0)
   9-R(  2  2  0)  10-R(  0  0  1)  11-C(  1  0  1)  12-R(  2  0  1)
  13-C(  0  1  1)  14-C(  1  1  1)  15-C(  2  1  1)  16-R(  0  2  1)
  17-C(  1  2  1)  18-R(  2  2  1)

 DIRECT LATTICE VECTORS COMPON. (A.U.)     RECIP. LATTICE VECTORS COMPON. (A.U.) 
        X            Y            Z              X            Y            Z
   22.2140817    0.0000000    0.0000000      0.2828470    0.0000000    0.0000000
    0.0000000   13.3692615    0.0000000      0.0000000    0.4699725    0.0000000
    0.0000000    0.0000000   32.3786762      0.0000000    0.0000000    0.1940532

 DISK SPACE FOR EIGENVECTORS (FTN 10)    60012288 REALS

 SYMMETRY ADAPTION OF THE BLOCH FUNCTIONS ENABLED
 TTTTTTTTTTTTTTTTTTTTTTTTTTTTTT gordsh1     TELAPSE        3.91 TCPU        1.74

 MATRIX SIZE: P(G) 4832552, F(G)  454312, P(G) IRR  306728, F(G) IRR   57580
 MAX G-VECTOR INDEX FOR 1- AND 2-ELECTRON INTEGRALS  83

 TTTTTTTTTTTTTTTTTTTTTTTTTTTTTT INPUT       TELAPSE        4.05 TCPU        1.87

 NEIGHBORS OF THE NON-EQUIVALENT ATOMS

 N = NUMBER OF NEIGHBORS AT DISTANCE R
    ATOM  N     R/ANG      R/AU   NEIGHBORS (ATOM LABELS AND CELL INDICES)
   1 O    1     0.9821     1.8559   89 H    0 0 0
   1 O    1     1.3487     2.5486   25 C    0 0 0
   1 O    1     1.9978     3.7753  102 H    0 0 0
   1 O    1     2.3665     4.4720   49 C    0 0 0
   1 O    1     2.3937     4.5234   65 C    0 0 0
   1 O    1     2.6067     4.9259  113 H    0 0 0

   9 O    1     1.2319     2.3279   73 C    0 0 0
   9 O    1     1.7139     3.2389   96 H    0 0 0
   9 O    1     2.2630     4.2765   17 N    0 0 0
   9 O    1     2.3322     4.4073  105 H    0 0 0
   9 O    1     2.4035     4.5420   57 C    0 0 0
   9 O    1     2.5980     4.9095  137 H    0 0 0

  17 N    1     1.0160     1.9199   97 H    0 0 0
  17 N    1     1.3410     2.5342   73 C    0 0 0
  17 N    1     1.4071     2.6590   33 C    0 0 0
  17 N    1     2.2630     4.2765    9 O    0 0 0
  17 N    1     2.3789     4.4954   81 C    0 0 0
  17 N    1     2.3938     4.5236   57 C    0 0 0

  25 C    1     1.3487     2.5486    1 O    0 0 0
  25 C    1     1.3898     2.6263   49 C    0 0 0
  25 C    1     1.3909     2.6285   65 C    0 0 0
  25 C    1     1.9230     3.6340   89 H    0 0 0
  25 C    1     2.1460     4.0553  113 H    0 0 0
  25 C    1     2.1505     4.0639  145 H    0 0 0

  33 C    1     1.3922     2.6309   81 C    0 0 0
  33 C    1     1.3926     2.6316   41 C    0 0 0
  33 C    1     1.4071     2.6590   17 N    0 0 0
  33 C    1     2.0461     3.8666   97 H    0 0 0
  33 C    1     2.1526     4.0678  153 H    0 0 0
  33 C    1     2.1551     4.0725  105 H    0 0 0

  41 C    1     1.0767     2.0347  105 H    0 0 0
  41 C    1     1.3874     2.6218   49 C    0 0 0
  41 C    1     1.3926     2.6316   33 C    0 0 0
  41 C    1     2.1351     4.0348  113 H    0 0 0
  41 C    1     2.3925     4.5211   81 C    0 0 0
  41 C    1     2.4152     4.5642   25 C    0 0 0

  49 C    1     1.0821     2.0448  113 H    0 0 0
  49 C    1     1.3874     2.6218   41 C    0 0 0
  49 C    1     1.3898     2.6263   25 C    0 0 0
  49 C    1     2.1239     4.0136  105 H    0 0 0
  49 C    1     2.3665     4.4720    1 O    0 0 0
  49 C    1     2.3917     4.5196   65 C    0 0 0

  57 C    1     1.0866     2.0535  137 H    0 0 0
  57 C    1     1.0877     2.0555  129 H    0 0 0
  57 C    1     1.0911     2.0618  121 H    0 0 0
  57 C    1     1.5054     2.8448   73 C    0 0 0
  57 C    1     2.3938     4.5236   17 N    0 0 0
  57 C    1     2.4035     4.5420    9 O    0 0 0

  65 C    1     1.0806     2.0421  145 H    0 0 0
  65 C    1     1.3807     2.6091   81 C    0 0 0
  65 C    1     1.3909     2.6285   25 C    0 0 0
  65 C    1     2.1238     4.0133  153 H    0 0 0
  65 C    1     2.3917     4.5196   49 C    0 0 0
  65 C    1     2.3937     4.5234    1 O    0 0 0

  73 C    1     1.2319     2.3279    9 O    0 0 0
  73 C    1     1.3410     2.5342   17 N    0 0 0
  73 C    1     1.5054     2.8448   57 C    0 0 0
  73 C    1     2.0049     3.7887   97 H    0 0 0
  73 C    1     2.1333     4.0313  121 H    0 0 0
  73 C    1     2.1417     4.0471  137 H    0 0 0

  81 C    1     1.0830     2.0465  153 H    0 0 0
  81 C    1     1.3807     2.6091   65 C    0 0 0
  81 C    1     1.3922     2.6309   33 C    0 0 0
  81 C    1     2.1271     4.0197  145 H    0 0 0
  81 C    1     2.3789     4.4954   17 N    0 0 0
  81 C    1     2.3925     4.5211   41 C    0 0 0

  89 H    1     0.9821     1.8559    1 O    0 0 0
  89 H    1     1.7139     3.2389   16 O    0 0 0
  89 H    1     1.9230     3.6340   25 C    0 0 0
  89 H    1     2.3212     4.3864  145 H    0 0 0
  89 H    1     2.4567     4.6426   65 C    0 0 0
  89 H    1     2.5676     4.8521  102 H    0 0 0

  97 H    1     1.0160     1.9199   17 N    0 0 0
  97 H    1     1.9978     3.7753    6 O    0 0 0
  97 H    1     2.0049     3.7887   73 C    0 0 0
  97 H    1     2.0461     3.8666   33 C    0 0 0
  97 H    1     2.2297     4.2135  129 H    0 0 0
  97 H    1     2.2763     4.3016  153 H    0 0 0

 105 H    1     1.0767     2.0347   41 C    0 0 0
 105 H    1     2.1239     4.0136   49 C    0 0 0
 105 H    1     2.1551     4.0725   33 C    0 0 0
 105 H    1     2.3322     4.4073    9 O    0 0 0
 105 H    1     2.4064     4.5475  131 H    0 0 0
 105 H    1     2.4289     4.5899  113 H    0 0 0

 113 H    1     1.0821     2.0448   49 C    0 0 0
 113 H    1     2.1351     4.0348   41 C    0 0 0
 113 H    1     2.1460     4.0553   25 C    0 0 0
 113 H    1     2.4289     4.5899  105 H    0 0 0
 113 H    1     2.6067     4.9259    1 O    0 0 0
 113 H    1     2.6082     4.9289  158 H    0 0 0

 121 H    1     1.0911     2.0618   57 C    0 0 0
 121 H    1     1.7600     3.3260  129 H    0 0 0
 121 H    1     1.7620     3.3296  137 H    0 0 0
 121 H    1     2.1333     4.0313   73 C    0 0 0
 121 H    1     2.5592     4.8362  109 H    0 1 0
 121 H    1     2.7131     5.1270   13 O    0 1 0

 129 H    1     1.0877     2.0555   57 C    0 0 0
 129 H    1     1.7600     3.3260  121 H    0 0 0
 129 H    1     1.7656     3.3365  137 H    0 0 0
 129 H    1     2.1687     4.0982   73 C    0 0 0
 129 H    1     2.2297     4.2135   97 H    0 0 0
 129 H    1     2.4064     4.5475  107 H    0 0 0

 137 H    1     1.0866     2.0535   57 C    0 0 0
 137 H    1     1.7620     3.3296  121 H    0 0 0
 137 H    1     1.7656     3.3365  129 H    0 0 0
 137 H    1     2.1417     4.0471   73 C    0 0 0
 137 H    1     2.3003     4.3470  152 H    0 0 0
[...]
Note: The following floating-point exceptions are signalling: IEEE_UNDERFLOW_FLAG IEEE_DENORMAL
Note: The following floating-point exceptions are signalling: IEEE_UNDERFLOW_FLAG IEEE_DENORMAL
Note: The following floating-point exceptions are signalling: IEEE_UNDERFLOW_FLAG IEEE_DENORMAL
Note: The following floating-point exceptions are signalling: IEEE_UNDERFLOW_FLAG IEEE_DENORMAL
Note: The following floating-point exceptions are signalling: IEEE_UNDERFLOW_FLAG IEEE_DENORMAL
Note: The following floating-point exceptions are signalling: IEEE_UNDERFLOW_FLAG IEEE_DENORMAL
Note: The following floating-point exceptions are signalling: IEEE_UNDERFLOW_FLAG IEEE_DENORMAL
Note: The following floating-point exceptions are signalling: IEEE_UNDERFLOW_FLAG IEEE_DENORMAL
Note: The following floating-point exceptions are signalling: IEEE_UNDERFLOW_FLAG IEEE_DENORMAL
Note: The following floating-point exceptions are signalling: IEEE_UNDERFLOW_FLAG IEEE_DENORMAL
Note: The following floating-point exceptions are signalling: IEEE_UNDERFLOW_FLAG IEEE_DENORMAL
Note: The following floating-point exceptions are signalling: IEEE_UNDERFLOW_FLAG IEEE_DENORMAL
Note: The following floating-point exceptions are signalling: IEEE_UNDERFLOW_FLAG IEEE_DENORMAL
Note: The following floating-point exceptions are signalling: IEEE_UNDERFLOW_FLAG IEEE_DENORMAL
Note: The following floating-point exceptions are signalling: IEEE_UNDERFLOW_FLAG IEEE_DENORMAL
Note: The following floating-point exceptions are signalling: IEEE_UNDERFLOW_FLAG IEEE_DENORMAL
Note: The following floating-point exceptions are signalling: IEEE_UNDERFLOW_FLAG IEEE_DENORMAL
Note: The following floating-point exceptions are signalling: IEEE_UNDERFLOW_FLAG IEEE_DENORMAL
Note: The following floating-point exceptions are signalling: IEEE_UNDERFLOW_FLAG IEEE_DENORMAL
Note: The following floating-point exceptions are signalling: IEEE_UNDERFLOW_FLAG IEEE_DENORMAL
Note: The following floating-point exceptions are signalling: IEEE_UNDERFLOW_FLAG IEEE_DENORMAL
Note: The following floating-point exceptions are signalling: IEEE_UNDERFLOW_FLAG IEEE_DENORMAL
Note: The following floating-point exceptions are signalling: IEEE_UNDERFLOW_FLAG IEEE_DENORMAL
Note: The following floating-point exceptions are signalling: IEEE_UNDERFLOW_FLAG IEEE_DENORMAL
Note: The following floating-point exceptions are signalling: IEEE_UNDERFLOW_FLAG IEEE_DENORMAL
Note: The following floating-point exceptions are signalling: IEEE_UNDERFLOW_FLAG IEEE_DENORMAL
Note: The following floating-point exceptions are signalling: IEEE_UNDERFLOW_FLAG IEEE_DENORMAL
Note: The following floating-point exceptions are signalling: IEEE_UNDERFLOW_FLAG IEEE_DENORMAL
Note: The following floating-point exceptions are signalling: IEEE_UNDERFLOW_FLAG IEEE_DENORMAL
Note: The following floating-point exceptions are signalling: IEEE_UNDERFLOW_FLAG IEEE_DENORMAL
Note: The following floating-point exceptions are signalling: IEEE_UNDERFLOW_FLAG IEEE_DENORMAL
Note: The following floating-point exceptions are signalling: IEEE_UNDERFLOW_FLAG IEEE_DENORMAL
Note: The following floating-point exceptions are signalling: IEEE_UNDERFLOW_FLAG IEEE_DENORMAL
Note: The following floating-point exceptions are signalling: IEEE_UNDERFLOW_FLAG IEEE_DENORMAL
Note: The following floating-point exceptions are signalling: IEEE_UNDERFLOW_FLAG IEEE_DENORMAL
Note: The following floating-point exceptions are signalling: IEEE_UNDERFLOW_FLAG IEEE_DENORMAL
Note: The following floating-point exceptions are signalling: IEEE_UNDERFLOW_FLAG IEEE_DENORMAL
Note: The following floating-point exceptions are signalling: IEEE_UNDERFLOW_FLAG IEEE_DENORMAL
Note: The following floating-point exceptions are signalling: IEEE_UNDERFLOW_FLAG IEEE_DENORMAL
Note: The following floating-point exceptions are signalling: IEEE_UNDERFLOW_FLAG IEEE_DENORMAL
Note: The following floating-point exceptions are signalling: IEEE_UNDERFLOW_FLAG IEEE_DENORMAL
Note: The following floating-point exceptions are signalling: IEEE_UNDERFLOW_FLAG IEEE_DENORMAL
Note: The following floating-point exceptions are signalling: IEEE_UNDERFLOW_FLAG IEEE_DENORMAL
Note: The following floating-point exceptions are signalling: IEEE_UNDERFLOW_FLAG IEEE_DENORMAL
Note: The following floating-point exceptions are signalling: IEEE_UNDERFLOW_FLAG IEEE_DENORMAL
Note: The following floating-point exceptions are signalling: IEEE_UNDERFLOW_FLAG IEEE_DENORMAL
Note: The following floating-point exceptions are signalling: IEEE_UNDERFLOW_FLAG IEEE_DENORMAL
Note: The following floating-point exceptions are signalling: IEEE_UNDERFLOW_FLAG IEEE_DENORMAL
Note: The following floating-point exceptions are signalling: IEEE_UNDERFLOW_FLAG IEEE_DENORMAL
Note: The following floating-point exceptions are signalling: IEEE_UNDERFLOW_FLAG IEEE_DENORMAL
Note: The following floating-point exceptions are signalling: IEEE_UNDERFLOW_FLAG IEEE_DENORMAL
Note: The following floating-point exceptions are signalling: IEEE_UNDERFLOW_FLAG IEEE_DENORMAL
Note: The following floating-point exceptions are signalling: IEEE_UNDERFLOW_FLAG IEEE_DENORMAL
Note: The following floating-point exceptions are signalling: IEEE_UNDERFLOW_FLAG IEEE_DENORMAL
Note: The following floating-point exceptions are signalling: IEEE_UNDERFLOW_FLAG IEEE_DENORMAL
Note: The following floating-point exceptions are signalling: IEEE_UNDERFLOW_FLAG IEEE_DENORMAL
Note: The following floating-point exceptions are signalling: IEEE_UNDERFLOW_FLAG IEEE_DENORMAL
Note: The following floating-point exceptions are signalling: IEEE_UNDERFLOW_FLAG IEEE_DENORMAL
Note: The following floating-point exceptions are signalling: IEEE_UNDERFLOW_FLAG IEEE_DENORMAL
Note: The following floating-point exceptions are signalling: IEEE_UNDERFLOW_FLAG IEEE_DENORMAL
Note: The following floating-point exceptions are signalling: IEEE_UNDERFLOW_FLAG IEEE_DENORMAL
Note: The following floating-point exceptions are signalling: IEEE_UNDERFLOW_FLAG IEEE_DENORMAL
Note: The following floating-point exceptions are signalling: IEEE_UNDERFLOW_FLAG IEEE_DENORMAL
Note: The following floating-point exceptions are signalling: IEEE_UNDERFLOW_FLAG IEEE_DENORMAL
Note: The following floating-point exceptions are signalling: IEEE_UNDERFLOW_FLAG IEEE_DENORMAL
Note: The following floating-point exceptions are signalling: IEEE_UNDERFLOW_FLAG IEEE_DENORMAL
Note: The following floating-point exceptions are signalling: IEEE_UNDERFLOW_FLAG IEEE_DENORMAL
Note: The following floating-point exceptions are signalling: IEEE_UNDERFLOW_FLAG IEEE_DENORMAL
Note: The following floating-point exceptions are signalling: IEEE_UNDERFLOW_FLAG IEEE_DENORMAL
Note: The following floating-point exceptions are signalling: IEEE_UNDERFLOW_FLAG IEEE_DENORMAL
Note: The following floating-point exceptions are signalling: IEEE_UNDERFLOW_FLAG IEEE_DENORMAL
Note: The following floating-point exceptions are signalling: IEEE_UNDERFLOW_FLAG IEEE_DENORMAL
Note: The following floating-point exceptions are signalling: IEEE_UNDERFLOW_FLAG IEEE_DENORMAL
Note: The following floating-point exceptions are signalling: IEEE_UNDERFLOW_FLAG IEEE_DENORMAL
Note: The following floating-point exceptions are signalling: IEEE_UNDERFLOW_FLAG IEEE_DENORMAL
Note: The following floating-point exceptions are signalling: IEEE_UNDERFLOW_FLAG IEEE_DENORMAL
Note: The following floating-point exceptions are signalling: IEEE_UNDERFLOW_FLAG IEEE_DENORMAL
Note: The following floating-point exceptions are signalling: IEEE_UNDERFLOW_FLAG IEEE_DENORMAL
Note: The following floating-point exceptions are signalling: IEEE_UNDERFLOW_FLAG IEEE_DENORMAL
Note: The following floating-point exceptions are signalling: IEEE_UNDERFLOW_FLAG IEEE_DENORMAL
Note: The following floating-point exceptions are signalling: IEEE_UNDERFLOW_FLAG IEEE_DENORMAL
Note: The following floating-point exceptions are signalling: IEEE_UNDERFLOW_FLAG IEEE_DENORMAL
Note: The following floating-point exceptions are signalling: IEEE_UNDERFLOW_FLAG IEEE_DENORMAL
Note: The following floating-point exceptions are signalling: IEEE_UNDERFLOW_FLAG IEEE_DENORMAL
Note: The following floating-point exceptions are signalling: IEEE_UNDERFLOW_FLAG IEEE_DENORMAL
Note: The following floating-point exceptions are signalling: IEEE_UNDERFLOW_FLAG IEEE_DENORMAL
Note: The following floating-point exceptions are signalling: IEEE_UNDERFLOW_FLAG IEEE_DENORMAL
Note: The following floating-point exceptions are signalling: IEEE_UNDERFLOW_FLAG IEEE_DENORMAL
Note: The following floating-point exceptions are signalling: IEEE_UNDERFLOW_FLAG IEEE_DENORMAL
Note: The following floating-point exceptions are signalling: IEEE_UNDERFLOW_FLAG IEEE_DENORMAL
Note: The following floating-point exceptions are signalling: IEEE_UNDERFLOW_FLAG IEEE_DENORMAL
Note: The following floating-point exceptions are signalling: IEEE_UNDERFLOW_FLAG IEEE_DENORMAL
Note: The following floating-point exceptions are signalling: IEEE_UNDERFLOW_FLAG IEEE_DENORMAL
Note: The following floating-point exceptions are signalling: IEEE_UNDERFLOW_FLAG IEEE_DENORMAL
Note: The following floating-point exceptions are signalling: IEEE_UNDERFLOW_FLAG IEEE_DENORMAL
Note: The following floating-point exceptions are signalling: IEEE_UNDERFLOW_FLAG IEEE_DENORMAL
Note: The following floating-point exceptions are signalling: IEEE_UNDERFLOW_FLAG IEEE_DENORMAL
Note: The following floating-point exceptions are signalling: IEEE_UNDERFLOW_FLAG IEEE_DENORMAL
Note: The following floating-point exceptions are signalling: IEEE_UNDERFLOW_FLAG IEEE_DENORMAL
Note: The following floating-point exceptions are signalling: IEEE_UNDERFLOW_FLAG IEEE_DENORMAL
Note: The following floating-point exceptions are signalling: IEEE_UNDERFLOW_FLAG IEEE_DENORMAL
Note: The following floating-point exceptions are signalling: IEEE_UNDERFLOW_FLAG IEEE_DENORMAL
Note: The following floating-point exceptions are signalling: IEEE_UNDERFLOW_FLAG IEEE_DENORMAL
Note: The following floating-point exceptions are signalling: IEEE_UNDERFLOW_FLAG IEEE_DENORMAL
Note: The following floating-point exceptions are signalling: IEEE_UNDERFLOW_FLAG IEEE_DENORMAL
Note: The following floating-point exceptions are signalling: IEEE_UNDERFLOW_FLAG IEEE_DENORMAL
Note: The following floating-point exceptions are signalling: IEEE_UNDERFLOW_FLAG IEEE_DENORMAL
Note: The following floating-point exceptions are signalling: IEEE_UNDERFLOW_FLAG IEEE_DENORMAL
Note: The following floating-point exceptions are signalling: IEEE_UNDERFLOW_FLAG IEEE_DENORMAL
Note: The following floating-point exceptions are signalling: IEEE_UNDERFLOW_FLAG IEEE_DENORMAL
Note: The following floating-point exceptions are signalling: IEEE_UNDERFLOW_FLAG IEEE_DENORMAL
Note: The following floating-point exceptions are signalling: IEEE_UNDERFLOW_FLAG IEEE_DENORMAL
Note: The following floating-point exceptions are signalling: IEEE_UNDERFLOW_FLAG IEEE_DENORMAL
Note: The following floating-point exceptions are signalling: IEEE_UNDERFLOW_FLAG IEEE_DENORMAL
Note: The following floating-point exceptions are signalling: IEEE_UNDERFLOW_FLAG IEEE_DENORMAL
Note: The following floating-point exceptions are signalling: IEEE_UNDERFLOW_FLAG IEEE_DENORMAL
Note: The following floating-point exceptions are signalling: IEEE_UNDERFLOW_FLAG IEEE_DENORMAL
Note: The following floating-point exceptions are signalling: IEEE_UNDERFLOW_FLAG IEEE_DENORMAL
Note: The following floating-point exceptions are signalling: IEEE_UNDERFLOW_FLAG IEEE_DENORMAL
Note: The following floating-point exceptions are signalling: IEEE_UNDERFLOW_FLAG IEEE_DENORMAL
Note: The following floating-point exceptions are signalling: IEEE_UNDERFLOW_FLAG IEEE_DENORMAL
Note: The following floating-point exceptions are signalling: IEEE_UNDERFLOW_FLAG IEEE_DENORMAL
Note: The following floating-point exceptions are signalling: IEEE_UNDERFLOW_FLAG IEEE_DENORMAL
Note: The following floating-point exceptions are signalling: IEEE_UNDERFLOW_FLAG IEEE_DENORMAL
Note: The following floating-point exceptions are signalling: IEEE_UNDERFLOW_FLAG IEEE_DENORMAL
Note: The following floating-point exceptions are signalling: IEEE_UNDERFLOW_FLAG IEEE_DENORMAL
Note: The following floating-point exceptions are signalling: IEEE_UNDERFLOW_FLAG IEEE_DENORMAL
Note: The following floating-point exceptions are signalling: IEEE_UNDERFLOW_FLAG IEEE_DENORMAL
Note: The following floating-point exceptions are signalling: IEEE_UNDERFLOW_FLAG IEEE_DENORMAL
Note: The following floating-point exceptions are signalling: IEEE_UNDERFLOW_FLAG IEEE_DENORMAL
Note: The following floating-point exceptions are signalling: IEEE_UNDERFLOW_FLAG IEEE_DENORMAL
Note: The following floating-point exceptions are signalling: IEEE_UNDERFLOW_FLAG IEEE_DENORMAL
Note: The following floating-point exceptions are signalling: IEEE_UNDERFLOW_FLAG IEEE_DENORMAL
Note: The following floating-point exceptions are signalling: IEEE_UNDERFLOW_FLAG IEEE_DENORMAL
Note: The following floating-point exceptions are signalling: IEEE_UNDERFLOW_FLAG IEEE_DENORMAL
Note: The following floating-point exceptions are signalling: IEEE_UNDERFLOW_FLAG IEEE_DENORMAL
Note: The following floating-point exceptions are signalling: IEEE_UNDERFLOW_FLAG IEEE_DENORMAL
Note: The following floating-point exceptions are signalling: IEEE_UNDERFLOW_FLAG IEEE_DENORMAL
Note: The following floating-point exceptions are signalling: IEEE_UNDERFLOW_FLAG IEEE_DENORMAL
Note: The following floating-point exceptions are signalling: IEEE_UNDERFLOW_FLAG IEEE_DENORMAL
Note: The following floating-point exceptions are signalling: IEEE_UNDERFLOW_FLAG IEEE_DENORMAL
Note: The following floating-point exceptions are signalling: IEEE_UNDERFLOW_FLAG IEEE_DENORMAL
Note: The following floating-point exceptions are signalling: IEEE_UNDERFLOW_FLAG IEEE_DENORMAL
Note: The following floating-point exceptions are signalling: IEEE_UNDERFLOW_FLAG IEEE_DENORMAL
Note: The following floating-point exceptions are signalling: IEEE_UNDERFLOW_FLAG IEEE_DENORMAL
Note: The following floating-point exceptions are signalling: IEEE_UNDERFLOW_FLAG IEEE_DENORMAL
Note: The following floating-point exceptions are signalling: IEEE_UNDERFLOW_FLAG IEEE_DENORMAL
Note: The following floating-point exceptions are signalling: IEEE_UNDERFLOW_FLAG IEEE_DENORMAL
Note: The following floating-point exceptions are signalling: IEEE_UNDERFLOW_FLAG IEEE_DENORMAL
Note: The following floating-point exceptions are signalling: IEEE_UNDERFLOW_FLAG IEEE_DENORMAL
Note: The following floating-point exceptions are signalling: IEEE_UNDERFLOW_FLAG IEEE_DENORMAL
Note: The following floating-point exceptions are signalling: IEEE_UNDERFLOW_FLAG IEEE_DENORMAL
Note: The following floating-point exceptions are signalling: IEEE_UNDERFLOW_FLAG IEEE_DENORMAL
Note: The following floating-point exceptions are signalling: IEEE_UNDERFLOW_FLAG IEEE_DENORMAL
Note: The following floating-point exceptions are signalling: IEEE_UNDERFLOW_FLAG IEEE_DENORMAL
Note: The following floating-point exceptions are signalling: IEEE_UNDERFLOW_FLAG IEEE_DENORMAL
Note: The following floating-point exceptions are signalling: IEEE_UNDERFLOW_FLAG IEEE_DENORMAL
Note: The following floating-point exceptions are signalling: IEEE_UNDERFLOW_FLAG IEEE_DENORMAL
Note: The following floating-point exceptions are signalling: IEEE_UNDERFLOW_FLAG IEEE_DENORMAL
Note: The following floating-point exceptions are signalling: IEEE_UNDERFLOW_FLAG IEEE_DENORMAL
Note: The following floating-point exceptions are signalling: IEEE_UNDERFLOW_FLAG IEEE_DENORMAL
Note: The following floating-point exceptions are signalling: IEEE_UNDERFLOW_FLAG IEEE_DENORMAL
Note: The following floating-point exceptions are signalling: IEEE_UNDERFLOW_FLAG IEEE_DENORMAL
Note: The following floating-point exceptions are signalling: IEEE_UNDERFLOW_FLAG IEEE_DENORMAL
Note: The following floating-point exceptions are signalling: IEEE_UNDERFLOW_FLAG IEEE_DENORMAL
Note: The following floating-point exceptions are signalling: IEEE_UNDERFLOW_FLAG IEEE_DENORMAL
Note: The following floating-point exceptions are signalling: IEEE_UNDERFLOW_FLAG IEEE_DENORMAL
Note: The following floating-point exceptions are signalling: IEEE_UNDERFLOW_FLAG IEEE_DENORMAL
Note: The following floating-point exceptions are signalling: IEEE_UNDERFLOW_FLAG IEEE_DENORMAL
Note: The following floating-point exceptions are signalling: IEEE_UNDERFLOW_FLAG IEEE_DENORMAL
Note: The following floating-point exceptions are signalling: IEEE_UNDERFLOW_FLAG IEEE_DENORMAL
Note: The following floating-point exceptions are signalling: IEEE_UNDERFLOW_FLAG IEEE_DENORMAL
Note: The following floating-point exceptions are signalling: IEEE_UNDERFLOW_FLAG IEEE_DENORMAL
Note: The following floating-point exceptions are signalling: IEEE_UNDERFLOW_FLAG IEEE_DENORMAL
Note: The following floating-point exceptions are signalling: IEEE_UNDERFLOW_FLAG IEEE_DENORMAL
Note: The following floating-point exceptions are signalling: IEEE_UNDERFLOW_FLAG IEEE_DENORMAL
Note: The following floating-point exceptions are signalling: IEEE_UNDERFLOW_FLAG IEEE_DENORMAL
Note: The following floating-point exceptions are signalling: IEEE_UNDERFLOW_FLAG IEEE_DENORMAL
Note: The following floating-point exceptions are signalling: IEEE_UNDERFLOW_FLAG IEEE_DENORMAL
Note: The following floating-point exceptions are signalling: IEEE_UNDERFLOW_FLAG IEEE_DENORMAL
Note: The following floating-point exceptions are signalling: IEEE_UNDERFLOW_FLAG IEEE_DENORMAL
Note: The following floating-point exceptions are signalling: IEEE_UNDERFLOW_FLAG IEEE_DENORMAL
Note: The following floating-point exceptions are signalling: IEEE_UNDERFLOW_FLAG IEEE_DENORMAL
Note: The following floating-point exceptions are signalling: IEEE_UNDERFLOW_FLAG IEEE_DENORMAL
Note: The following floating-point exceptions are signalling: IEEE_UNDERFLOW_FLAG IEEE_DENORMAL
Note: The following floating-point exceptions are signalling: IEEE_UNDERFLOW_FLAG IEEE_DENORMAL
Note: The following floating-point exceptions are signalling: IEEE_UNDERFLOW_FLAG IEEE_DENORMAL
Note: The following floating-point exceptions are signalling: IEEE_UNDERFLOW_FLAG IEEE_DENORMAL
Note: The following floating-point exceptions are signalling: IEEE_UNDERFLOW_FLAG IEEE_DENORMAL
Note: The following floating-point exceptions are signalling: IEEE_UNDERFLOW_FLAG IEEE_DENORMAL
Note: The following floating-point exceptions are signalling: IEEE_UNDERFLOW_FLAG IEEE_DENORMAL
Note: The following floating-point exceptions are signalling: IEEE_UNDERFLOW_FLAG IEEE_DENORMAL
Note: The following floating-point exceptions are signalling: IEEE_UNDERFLOW_FLAG IEEE_DENORMAL
Note: The following floating-point exceptions are signalling: IEEE_UNDERFLOW_FLAG IEEE_DENORMAL
Note: The following floating-point exceptions are signalling: IEEE_UNDERFLOW_FLAG IEEE_DENORMAL
Note: The following floating-point exceptions are signalling: IEEE_UNDERFLOW_FLAG IEEE_DENORMAL
Note: The following floating-point exceptions are signalling: IEEE_UNDERFLOW_FLAG IEEE_DENORMAL
Note: The following floating-point exceptions are signalling: IEEE_UNDERFLOW_FLAG IEEE_DENORMAL
Note: The following floating-point exceptions are signalling: IEEE_UNDERFLOW_FLAG IEEE_DENORMAL
Note: The following floating-point exceptions are signalling: IEEE_UNDERFLOW_FLAG IEEE_DENORMAL
Note: The following floating-point exceptions are signalling: IEEE_UNDERFLOW_FLAG IEEE_DENORMAL
Note: The following floating-point exceptions are signalling: IEEE_UNDERFLOW_FLAG IEEE_DENORMAL
Note: The following floating-point exceptions are signalling: IEEE_UNDERFLOW_FLAG IEEE_DENORMAL
Note: The following floating-point exceptions are signalling: IEEE_UNDERFLOW_FLAG IEEE_DENORMAL
Note: The following floating-point exceptions are signalling: IEEE_UNDERFLOW_FLAG IEEE_DENORMAL
Note: The following floating-point exceptions are signalling: IEEE_UNDERFLOW_FLAG IEEE_DENORMAL
Note: The following floating-point exceptions are signalling: IEEE_UNDERFLOW_FLAG IEEE_DENORMAL
Note: The following floating-point exceptions are signalling: IEEE_UNDERFLOW_FLAG IEEE_DENORMAL
