Lmod has detected the following error: The following module(s) are unknown:
"epcc-job-env"

Please check the spelling or version number. Also try "module spider ..."
It is also possible your cache file is out-of-date; it may help to try:
  $ module --ignore-cache load "epcc-job-env"

Also make sure that all modulefiles written in TCL start with the string
#%Module




Warning: You have enabled access to software packages installed
by external parties on ARCHER2 or those that are not fully-supported.
The ARCHER2 CSE service does not test these packages. The service desk
will make reasonable efforts to assist with questions on the use of
these packages but some issues may not be able to be resolved by the
service and they may direct you to seek help from external parties.


         512 PROCESSORS WORKING

         
 *******************************************************************************
 *                                                                             *
 *                               CRYSTAL17                                     *
 *                      public : 1.0.2 - March 1st, 2018 STFC/Archer2 build    *
 *                       HTTP://WWW.CRYSTAL.UNITO.IT                           *
 *                                                                             *
 *                              MAIN AUTHORS                                   *
 *                                                                             *
 *  R. DOVESI(1,11), V.R. SAUNDERS(2), C. ROETTI(1,11), R. ORLANDO(1,11),      *
 *  C.M. ZICOVICH-WILSON(1,3), F. PASCALE(4), B. CIVALLERI(1,11),              *
 *  K. DOLL(5), N.M. HARRISON(2,6), I.J. BUSH(7), Ph. D'ARCO(8),               *
 *  M. LLUNELL(9), M. CAUSA'(10), Y. NOEL(8), L. MASCHIO(1,11), A. ERBA(1,11)  *
 *  M. RE'RAT(14), S. CASASSA(1,11)                                            *
 *                                                                             *
 *        CONTRIBUTIONS TO THE CODE HAVE ALSO BEEN GIVEN BY                    *
 *                                                                             *
 *  M. FERRABONE(1,11), M. DE LA PIERRE(1,11), M. FERRERO(1,11),               *
 *  J. BAIMA(1,11), E. ALBANESE(1,11), M.F. PEINTINGER(12), R. BAST(13),       *
 *  B. KIRTMAN(15), V. LACIVITA(1,11), R. DEMICHELIS(1,16)                     *
 *  G. BRANDEBURG(17), S. SALUSTRO(1,11), G. SANSONE(1,11)                     *
 *  M.T. RUGGIERO(18)                                                          *
 *                                                                             *
 * (1) THEORETICAL CHEMISTRY GROUP - UNIVERSITA' DI TORINO - TORINO (ITALY)    *
 * (2) COMPUTATIONAL SCIENCE & ENGINEERING DEPARTMENT - STFC DARESBURY (UK)    *
 * (3) UNIVERSIDAD AUTONOMA DEL ESTADO DE MORELOS - CUERNAVACA (MEXICO)        *
 * (4) UNIVERSITE' DE LORRAINE - NANCY (FRANCE)                                *
 * (5) UNIVERSITAET STUTTGART- STUTTGART (GERMANY)                             *
 * (6) IMPERIAL COLLEGE - LONDON (UK)                                          *
 * (7) OXFORD E-RESEARCH CENTRE - OXFORD (UK)                                  *
 * (8) UPMC - SORBONNE UNIVERSITES - PARIS (FRANCE)                            *
 * (9) UNIVERSIDAD DE BARCELONA - BARCELONA (SPAIN)                            *
 *(10) UNIVERSITA' DI NAPOLI "FEDERICO II" - NAPOLI (ITALY)                    *
 *(11) NIS - NANOSTRUCTURED INTERFACES AND SURFACES - TORINO (ITALY)           *
 *(12) MPI FUER CHEMISCHE ENERGIEKONVERSION - MUELHEIM AN DER RUHR (GERMANY)   *
 *(13) UNIVERSITY OF TROMSO - TROMSO (NORWAY)                                  *
 *(14) UNIVERSITE' DE PAU ET DES PAYS DE L'ADOUR - PAU (FRANCE)                *
 *(15) UNIVERSITY OF CALIFORNIA SANTA BARBARA - SANTA BARBARA (USA)            *
 *(16) CURTIN UNIVERSITY - PERTH (AUSTRALIA)                                   *
 *(17) UNIVERSITY COLLEGE LONDON - LONDON (UK)                                 *
 *(18) CAMBRIDGE UNIVERSITY - CAMBRIDGE (UK)                                   *
 *                                                                             *
 *******************************************************************************
 EEEEEEEEEE STARTING  DATE 06 03 2022 TIME 21:48:30.4
 F2 vol stepm3 freq - PBEh-3c                                                    

 GEOMETRY INPUT FROM EXTERNAL FILE (FORTRAN UNIT 34)
 3D - CRYSTAL 

 *******************************************************************************
 LATTICE PARAMETERS  (ANGSTROMS AND DEGREES) - PRIMITIVE CELL
       A          B          C        ALPHA      BETA     GAMMA        VOLUME
   11.73455    7.02573   17.10742    90.00000  90.00000  90.00000   1410.399643

 NUMBER OF IRREDUCIBLE ATOMS IN THE CELL:   20

 CARTESIAN COORDINATES (ANGSTROM) - IRREDUCIBLE ATOMS AND SYMMETRY RELATED

 AT.IRR.  AT  AT.N.          X                   Y                   Z
     1     1     8   -2.791015800855E+00  1.736389714359E+00 -6.322086355679E+00
     1     2     8   -3.076259245757E+00 -1.736389714359E+00  2.231623464586E+00
     1     3     8    3.076259245757E+00  1.776473518749E+00  6.322086355679E+00
     1     4     8    2.791015800855E+00 -1.776473518749E+00 -2.231623464586E+00
     1     5     8    2.791015800855E+00 -1.736389714359E+00  6.322086355679E+00
     1     6     8    3.076259245757E+00  1.736389714359E+00 -2.231623464586E+00
     1     7     8   -3.076259245757E+00 -1.776473518749E+00 -6.322086355679E+00
     1     8     8   -2.791015800855E+00  1.776473518749E+00  2.231623464586E+00
     9     9     8   -1.231269494479E+00  1.917895400988E+00  4.868812153000E-02
     9    10     8   -4.636005552132E+00 -1.917895400988E+00 -8.505021698735E+00
     9    11     8    4.636005552132E+00  1.594967832121E+00 -4.868812153000E-02
     9    12     8    1.231269494479E+00 -1.594967832121E+00  8.505021698735E+00
     9    13     8    1.231269494479E+00 -1.917895400988E+00 -4.868812153000E-02
     9    14     8    4.636005552132E+00  1.917895400988E+00  8.505021698735E+00
     9    15     8   -4.636005552132E+00 -1.594967832121E+00  4.868812153000E-02
     9    16     8   -1.231269494479E+00  1.594967832121E+00 -8.505021698735E+00
    17    17     7    1.890657126720E-01  1.438662662267E+00 -1.645987443447E+00
    17    18     7    5.678209333940E+00 -1.438662662267E+00  6.907722376817E+00
    17    19     7   -5.678209333940E+00  2.074200570842E+00  1.645987443447E+00
    17    20     7   -1.890657126720E-01 -2.074200570842E+00 -6.907722376817E+00
    17    21     7   -1.890657126720E-01 -1.438662662267E+00  1.645987443447E+00
    17    22     7   -5.678209333940E+00  1.438662662267E+00 -6.907722376817E+00
    17    23     7    5.678209333940E+00 -2.074200570842E+00 -1.645987443447E+00
    17    24     7    1.890657126720E-01  2.074200570842E+00  6.907722376817E+00
    25    25     6   -2.097644006967E+00  1.615682165262E+00 -5.171643829528E+00
    25    26     6   -3.769631039644E+00 -1.615682165262E+00  3.382065990736E+00
    25    27     6    3.769631039644E+00  1.897181067846E+00  5.171643829528E+00
    25    28     6    2.097644006967E+00 -1.897181067846E+00 -3.382065990736E+00
    25    29     6    2.097644006967E+00 -1.615682165262E+00  5.171643829528E+00
    25    30     6    3.769631039644E+00  1.615682165262E+00 -3.382065990736E+00
    25    31     6   -3.769631039644E+00 -1.897181067846E+00 -5.171643829528E+00
    25    32     6   -2.097644006967E+00  1.897181067846E+00  3.382065990736E+00
    33    33     6   -6.553310996920E-01  1.473742962410E+00 -2.770649842862E+00
    33    34     6   -5.211943946919E+00 -1.473742962410E+00  5.783059977403E+00
    33    35     6    5.211943946919E+00  2.039120270699E+00  2.770649842862E+00
    33    36     6    6.553310996920E-01 -2.039120270699E+00 -5.783059977403E+00
    33    37     6    6.553310996920E-01 -1.473742962410E+00  2.770649842862E+00
    33    38     6    5.211943946919E+00  1.473742962410E+00 -5.783059977403E+00
    33    39     6   -5.211943946919E+00 -2.039120270699E+00 -2.770649842862E+00
    33    40     6   -6.553310996920E-01  2.039120270699E+00  5.783059977403E+00
    41    41     6   -1.930414174475E+00  2.032408814118E+00 -2.798961685223E+00
    41    42     6   -3.936860872136E+00 -2.032408814118E+00  5.754748135042E+00
    41    43     6    3.936860872136E+00  1.480454418990E+00  2.798961685223E+00
    41    44     6    1.930414174475E+00 -1.480454418990E+00 -5.754748135042E+00
    41    45     6    1.930414174475E+00 -2.032408814118E+00  2.798961685223E+00
    41    46     6    3.936860872136E+00  2.032408814118E+00 -5.754748135042E+00
    41    47     6   -3.936860872136E+00 -1.480454418990E+00 -2.798961685223E+00
    41    48     6   -1.930414174475E+00  1.480454418990E+00  5.754748135042E+00
    49    49     6   -2.641624369275E+00  2.099824719809E+00 -3.988161301064E+00
    49    50     6   -3.225650677336E+00 -2.099824719809E+00  4.565548519201E+00
    49    51     6    3.225650677336E+00  1.413038513299E+00  3.988161301064E+00
    49    52     6    2.641624369275E+00 -1.413038513299E+00 -4.565548519201E+00
    49    53     6    2.641624369275E+00 -2.099824719809E+00  3.988161301064E+00
    49    54     6    3.225650677336E+00  2.099824719809E+00 -4.565548519201E+00
    49    55     6   -3.225650677336E+00 -1.413038513299E+00 -3.988161301064E+00
    49    56     6   -2.641624369275E+00  1.413038513299E+00  4.565548519201E+00
    57    57     6    1.086590701237E+00  1.552007073463E+00  5.696389387710E-01
    57    58     6    4.780684345374E+00 -1.552007073463E+00 -7.984070881493E+00
    57    59     6   -4.780684345374E+00  1.960856159645E+00 -5.696389387710E-01
    57    60     6   -1.086590701237E+00 -1.960856159645E+00  7.984070881493E+00
    57    61     6   -1.086590701237E+00 -1.552007073463E+00 -5.696389387710E-01
    57    62     6   -4.780684345374E+00  1.552007073463E+00  7.984070881493E+00
    57    63     6    4.780684345374E+00 -1.960856159645E+00  5.696389387710E-01
    57    64     6    1.086590701237E+00  1.960856159645E+00 -7.984070881493E+00
    65    65     6   -8.462541052730E-01  1.010217097503E+00 -5.132002409924E+00
    65    66     6   -5.021020941338E+00 -1.010217097503E+00  3.421707410341E+00
    65    67     6    5.021020941338E+00  2.502646135605E+00  5.132002409924E+00
    65    68     6    8.462541052730E-01 -2.502646135605E+00 -3.421707410341E+00
    65    69     6    8.462541052730E-01 -1.010217097503E+00  5.132002409924E+00
    65    70     6    5.021020941338E+00  1.010217097503E+00 -3.421707410341E+00
    65    71     6   -5.021020941338E+00 -2.502646135605E+00 -5.132002409924E+00
    65    72     6   -8.462541052730E-01  2.502646135605E+00  3.421707410341E+00
    73    73     6   -9.857909211300E-02  1.647010053200E+00 -3.532664458120E-01
    73    74     6   -5.768695954498E+00 -1.647010053200E+00  8.200443374453E+00
    73    75     6    5.768695954498E+00  1.865853179908E+00  3.532664458120E-01
    73    76     6    9.857909211300E-02 -1.865853179908E+00 -8.200443374453E+00
    73    77     6    9.857909211300E-02 -1.647010053200E+00  3.532664458120E-01
    73    78     6    5.768695954498E+00  1.647010053200E+00 -8.200443374453E+00
    73    79     6   -5.768695954498E+00 -1.865853179908E+00 -3.532664458120E-01
    73    80     6   -9.857909211300E-02  1.865853179908E+00  8.200443374453E+00
    81    81     6   -1.366375070860E-01  9.458699874520E-01 -3.949737173743E+00
    81    82     6   -5.730637539525E+00 -9.458699874520E-01  4.603972646522E+00
    81    83     6    5.730637539525E+00  2.566993245657E+00  3.949737173743E+00
    81    84     6    1.366375070860E-01 -2.566993245657E+00 -4.603972646522E+00
    81    85     6    1.366375070860E-01 -9.458699874520E-01  3.949737173743E+00
    81    86     6    5.730637539525E+00  9.458699874520E-01 -4.603972646522E+00
    81    87     6   -5.730637539525E+00 -2.566993245657E+00 -3.949737173743E+00
    81    88     6   -1.366375070860E-01  2.566993245657E+00  4.603972646522E+00
    89    89     1   -2.191517065401E+00  1.619567251211E+00 -7.091377702520E+00
    89    90     1   -3.675757981211E+00 -1.619567251211E+00  1.462332117745E+00
    89    91     1    3.675757981211E+00  1.893295981897E+00  7.091377702520E+00
    89    92     1    2.191517065401E+00 -1.893295981897E+00 -1.462332117745E+00
    89    93     1    2.191517065401E+00 -1.619567251211E+00  7.091377702520E+00
    89    94     1    3.675757981211E+00  1.619567251211E+00 -1.462332117745E+00
    89    95     1   -3.675757981211E+00 -1.893295981897E+00 -7.091377702520E+00
    89    96     1   -2.191517065401E+00  1.893295981897E+00  1.462332117745E+00
    97    97     1    1.172809213079E+00  1.311223106288E+00 -1.866529379119E+00
    97    98     1    4.694465833532E+00 -1.311223106288E+00  6.687180441146E+00
    97    99     1   -4.694465833532E+00  2.201640126820E+00  1.866529379119E+00
    97   100     1   -1.172809213079E+00 -2.201640126820E+00 -6.687180441146E+00
    97   101     1   -1.172809213079E+00 -1.311223106288E+00  1.866529379119E+00
    97   102     1   -4.694465833532E+00  1.311223106288E+00 -6.687180441146E+00
    97   103     1    4.694465833532E+00 -2.201640126820E+00 -1.866529379119E+00
    97   104     1    1.172809213079E+00  2.201640126820E+00  6.687180441146E+00
   105   105     1   -2.374441329388E+00  2.447082044201E+00 -1.910270549156E+00
   105   106     1   -3.492833717223E+00 -2.447082044201E+00  6.643439271108E+00
   105   107     1    3.492833717223E+00  1.065781188907E+00  1.910270549156E+00
   105   108     1    2.374441329388E+00 -1.065781188907E+00 -6.643439271108E+00
   105   109     1    2.374441329388E+00 -2.447082044201E+00  1.910270549156E+00
   105   110     1    3.492833717223E+00  2.447082044201E+00 -6.643439271108E+00
   105   111     1   -3.492833717223E+00 -1.065781188907E+00 -1.910270549156E+00
   105   112     1   -2.374441329388E+00  1.065781188907E+00  6.643439271108E+00
   113   113     1   -3.620992961986E+00  2.559526877906E+00 -3.991137811189E+00
   113   114     1   -2.246282084625E+00 -2.559526877906E+00  4.562572009075E+00
   113   115     1    2.246282084625E+00  9.533363552020E-01  3.991137811189E+00
   113   116     1    3.620992961986E+00 -9.533363552020E-01 -4.562572009075E+00
   113   117     1    3.620992961986E+00 -2.559526877906E+00  3.991137811189E+00
   113   118     1    2.246282084625E+00  2.559526877906E+00 -4.562572009075E+00
   113   119     1   -2.246282084625E+00 -9.533363552020E-01 -3.991137811189E+00
   113   120     1   -3.620992961986E+00  9.533363552020E-01  4.562572009075E+00
   121   121     1    1.560716810336E+00  2.530879188783E+00  6.540251018690E-01
   121   122     1    4.306558236275E+00 -2.530879188783E+00 -7.899684718395E+00
   121   123     1   -4.306558236275E+00  9.819840443250E-01 -6.540251018690E-01
   121   124     1   -1.560716810336E+00 -9.819840443250E-01  7.899684718395E+00
   121   125     1   -1.560716810336E+00 -2.530879188783E+00 -6.540251018690E-01
   121   126     1   -4.306558236275E+00  2.530879188783E+00  7.899684718395E+00
   121   127     1    4.306558236275E+00 -9.819840443250E-01  6.540251018690E-01
   121   128     1    1.560716810336E+00  9.819840443250E-01 -7.899684718395E+00
   129   129     1    1.836264484906E+00  8.496767308360E-01  2.123000581160E-01
   129   130     1    4.031010561705E+00 -8.496767308360E-01 -8.341409762149E+00
   129   131     1   -4.031010561705E+00  2.663186502272E+00 -2.123000581160E-01
   129   132     1   -1.836264484906E+00 -2.663186502272E+00  8.341409762149E+00
   129   133     1   -1.836264484906E+00 -8.496767308360E-01 -2.123000581160E-01
   129   134     1   -4.031010561705E+00  8.496767308360E-01  8.341409762149E+00
   129   135     1    4.031010561705E+00 -2.663186502272E+00  2.123000581160E-01
   129   136     1    1.836264484906E+00  2.663186502272E+00 -8.341409762149E+00
   137   137     1    7.699395410530E-01  1.245137746804E+00  1.562683237962E+00
   137   138     1    5.097335505559E+00 -1.245137746804E+00 -6.991026582303E+00
   137   139     1   -5.097335505559E+00  2.267725486304E+00 -1.562683237962E+00
   137   140     1   -7.699395410530E-01 -2.267725486304E+00  6.991026582303E+00
   137   141     1   -7.699395410530E-01 -1.245137746804E+00 -1.562683237962E+00
   137   142     1   -5.097335505559E+00  1.245137746804E+00  6.991026582303E+00
   137   143     1    5.097335505559E+00 -2.267725486304E+00  1.562683237962E+00
   137   144     1    7.699395410530E-01  2.267725486304E+00 -6.991026582303E+00
   145   145     1   -4.222979139110E-01  5.716291944450E-01 -6.023734133261E+00
   145   146     1   -5.444977132700E+00 -5.716291944450E-01  2.529975687004E+00
   145   147     1    5.444977132700E+00  2.941234038663E+00  6.023734133261E+00
   145   148     1    4.222979139110E-01 -2.941234038663E+00 -2.529975687004E+00
   145   149     1    4.222979139110E-01 -5.716291944450E-01  6.023734133261E+00
   145   150     1    5.444977132700E+00  5.716291944450E-01 -2.529975687004E+00
   145   151     1   -5.444977132700E+00 -2.941234038663E+00 -6.023734133261E+00
   145   152     1   -4.222979139110E-01  2.941234038663E+00  2.529975687004E+00
   153   153     1    8.389580156400E-01  4.762182691400E-01 -3.955726525542E+00
   153   154     1    5.028317030971E+00 -4.762182691400E-01  4.597983294722E+00
   153   155     1   -5.028317030971E+00  3.036644963968E+00  3.955726525542E+00
   153   156     1   -8.389580156400E-01 -3.036644963968E+00 -4.597983294722E+00
   153   157     1   -8.389580156400E-01 -4.762182691400E-01  3.955726525542E+00
   153   158     1   -5.028317030971E+00  4.762182691400E-01 -4.597983294722E+00
   153   159     1    5.028317030971E+00 -3.036644963968E+00 -3.955726525542E+00
   153   160     1    8.389580156400E-01  3.036644963968E+00  4.597983294722E+00

 SPACE  GROUP  N.                     :   61
 NUMBER OF SYMMETRY OPERATORS         :    8
 *******************************************************************************
 LATTICE PARAMETERS (ANGSTROMS AND DEGREES) - BOHR = 0.5291772083 ANGSTROM
 PRIMITIVE CELL - CENTRING CODE 1/0 VOLUME=  1410.399643 - DENSITY  1.423 g/cm^3
         A              B              C           ALPHA      BETA       GAMMA 
    11.73455009     7.02572647    17.10741964    90.000000  90.000000  90.000000
 *******************************************************************************
 ATOMS IN THE ASYMMETRIC UNIT   20 - ATOMS IN THE UNIT CELL:  160
     ATOM                 X/A                 Y/B                 Z/C    
 *******************************************************************************
      1 T   8 O    -2.378459999478E-01  2.471473551821E-01 -3.695523047036E-01
      2 F   8 O    -2.621540000532E-01 -2.471473551821E-01  1.304476952972E-01
      3 F   8 O     2.621540000532E-01  2.528526448176E-01  3.695523047036E-01
      4 F   8 O     2.378459999478E-01 -2.528526448176E-01 -1.304476952972E-01
      5 F   8 O     2.378459999478E-01 -2.471473551821E-01  3.695523047036E-01
      6 F   8 O     2.621540000532E-01  2.471473551821E-01 -1.304476952972E-01
      7 F   8 O    -2.621540000532E-01 -2.528526448176E-01 -3.695523047036E-01
      8 F   8 O    -2.378459999478E-01  2.528526448176E-01  1.304476952972E-01
      9 T   8 O    -1.049268599733E-01  2.729817920196E-01  2.846023687566E-03
     10 F   8 O    -3.950731400276E-01 -2.729817920196E-01 -4.971539763133E-01
     11 F   8 O     3.950731400276E-01  2.270182079803E-01 -2.846023687566E-03
     12 F   8 O     1.049268599733E-01 -2.270182079803E-01  4.971539763133E-01
     13 F   8 O     1.049268599733E-01 -2.729817920196E-01 -2.846023687566E-03
     14 F   8 O     3.950731400276E-01  2.729817920196E-01  4.971539763133E-01
     15 F   8 O    -3.950731400276E-01 -2.270182079803E-01  2.846023687566E-03
     16 F   8 O    -1.049268599733E-01  2.270182079803E-01 -4.971539763133E-01
     17 T   7 N     1.611188423675E-02  2.047706623912E-01 -9.621482830469E-02
     18 F   7 N     4.838881157643E-01 -2.047706623912E-01  4.037851716961E-01
     19 F   7 N    -4.838881157643E-01  2.952293376087E-01  9.621482830469E-02
     20 F   7 N    -1.611188423675E-02 -2.952293376087E-01 -4.037851716961E-01
     21 F   7 N    -1.611188423675E-02 -2.047706623912E-01  9.621482830469E-02
     22 F   7 N    -4.838881157643E-01  2.047706623912E-01 -4.037851716961E-01
     23 F   7 N     4.838881157643E-01 -2.952293376087E-01 -9.621482830469E-02
     24 F   7 N     1.611188423675E-02  2.952293376087E-01  4.037851716961E-01
     25 T   6 C    -1.787579404670E-01  2.299665626082E-01 -3.023041427758E-01
     26 F   6 C    -3.212420595340E-01 -2.299665626082E-01  1.976958572250E-01
     27 F   6 C     3.212420595340E-01  2.700334373915E-01  3.023041427758E-01
     28 F   6 C     1.787579404670E-01 -2.700334373915E-01 -1.976958572250E-01
     29 F   6 C     1.787579404670E-01 -2.299665626082E-01  3.023041427758E-01
     30 F   6 C     3.212420595340E-01  2.299665626082E-01 -1.976958572250E-01
     31 F   6 C    -3.212420595340E-01 -2.700334373915E-01 -3.023041427758E-01
     32 F   6 C    -1.787579404670E-01  2.700334373915E-01  1.976958572250E-01
     33 T   6 C    -5.584629103691E-02  2.097637830758E-01 -1.619560343456E-01
     34 F   6 C    -4.441537089640E-01 -2.097637830758E-01  3.380439656552E-01
     35 F   6 C     4.441537089640E-01  2.902362169241E-01  1.619560343456E-01
     36 F   6 C     5.584629103691E-02 -2.902362169241E-01 -3.380439656552E-01
     37 F   6 C     5.584629103691E-02 -2.097637830758E-01  1.619560343456E-01
     38 F   6 C     4.441537089640E-01  2.097637830758E-01 -3.380439656552E-01
     39 F   6 C    -4.441537089640E-01 -2.902362169241E-01 -1.619560343456E-01
     40 F   6 C    -5.584629103691E-02  2.902362169241E-01  3.380439656552E-01
     41 T   6 C    -1.645068757765E-01  2.892809482251E-01 -1.636109795657E-01
     42 F   6 C    -3.354931242245E-01 -2.892809482251E-01  3.363890204352E-01
     43 F   6 C     3.354931242245E-01  2.107190517747E-01  1.636109795657E-01
     44 F   6 C     1.645068757765E-01 -2.107190517747E-01 -3.363890204352E-01
     45 F   6 C     1.645068757765E-01 -2.892809482251E-01  1.636109795657E-01
     46 F   6 C     3.354931242245E-01  2.892809482251E-01 -3.363890204352E-01
     47 F   6 C    -3.354931242245E-01 -2.107190517747E-01 -1.636109795657E-01
     48 F   6 C    -1.645068757765E-01  2.107190517747E-01  3.363890204352E-01
     49 T   6 C    -2.251150958745E-01  2.988765261365E-01 -2.331246549668E-01
     50 F   6 C    -2.748849041264E-01 -2.988765261365E-01  2.668753450341E-01
     51 F   6 C     2.748849041264E-01  2.011234738632E-01  2.331246549668E-01
     52 F   6 C     2.251150958745E-01 -2.011234738632E-01 -2.668753450341E-01
     53 F   6 C     2.251150958745E-01 -2.988765261365E-01  2.331246549668E-01
     54 F   6 C     2.748849041264E-01  2.988765261365E-01 -2.668753450341E-01
     55 F   6 C    -2.748849041264E-01 -2.011234738632E-01 -2.331246549668E-01
     56 F   6 C    -2.251150958745E-01  2.011234738632E-01  2.668753450341E-01
     57 T   6 C     9.259755956615E-02  2.209034298339E-01  3.329777083520E-02
     58 F   6 C     4.074024404348E-01 -2.209034298339E-01 -4.667022291656E-01
     59 F   6 C    -4.074024404348E-01  2.790965701658E-01 -3.329777083520E-02
     60 F   6 C    -9.259755956615E-02 -2.790965701658E-01  4.667022291656E-01
     61 F   6 C    -9.259755956615E-02 -2.209034298339E-01 -3.329777083520E-02
     62 F   6 C    -4.074024404348E-01  2.209034298339E-01  4.667022291656E-01
     63 F   6 C     4.074024404348E-01 -2.790965701658E-01  3.329777083520E-02
     64 F   6 C     9.259755956615E-02  2.790965701658E-01 -4.667022291656E-01
     65 T   6 C    -7.211645086959E-02  1.437882761819E-01 -2.999869365322E-01
     66 F   6 C    -4.278835491313E-01 -1.437882761819E-01  2.000130634687E-01
     67 F   6 C     4.278835491313E-01  3.562117238179E-01  2.999869365322E-01
     68 F   6 C     7.211645086959E-02 -3.562117238179E-01 -2.000130634687E-01
     69 F   6 C     7.211645086959E-02 -1.437882761819E-01  2.999869365322E-01
     70 F   6 C     4.278835491313E-01  1.437882761819E-01 -2.000130634687E-01
     71 F   6 C    -4.278835491313E-01 -3.562117238179E-01 -2.999869365322E-01
     72 F   6 C    -7.211645086959E-02  3.562117238179E-01  2.000130634687E-01
     73 T   6 C    -8.400756000873E-03  2.344255873210E-01 -2.064989654990E-02
     74 F   6 C    -4.915992440001E-01 -2.344255873210E-01  4.793501034510E-01
     75 F   6 C     4.915992440001E-01  2.655744126788E-01  2.064989654990E-02
     76 F   6 C     8.400756000873E-03 -2.655744126788E-01 -4.793501034510E-01
     77 F   6 C     8.400756000873E-03 -2.344255873210E-01  2.064989654990E-02
     78 F   6 C     4.915992440001E-01  2.344255873210E-01 -4.793501034510E-01
     79 F   6 C    -4.915992440001E-01 -2.655744126788E-01 -2.064989654990E-02
     80 F   6 C    -8.400756000873E-03  2.655744126788E-01  4.793501034510E-01
     81 T   6 C    -1.164403458171E-02  1.346294923379E-01 -2.308786045321E-01
     82 F   6 C    -4.883559654192E-01 -1.346294923379E-01  2.691213954688E-01
     83 F   6 C     4.883559654192E-01  3.653705076620E-01  2.308786045321E-01
     84 F   6 C     1.164403458171E-02 -3.653705076620E-01 -2.691213954688E-01
     85 F   6 C     1.164403458171E-02 -1.346294923379E-01  2.308786045321E-01
     86 F   6 C     4.883559654192E-01  1.346294923379E-01 -2.691213954688E-01
     87 F   6 C    -4.883559654192E-01 -3.653705076620E-01 -2.308786045321E-01
     88 F   6 C    -1.164403458171E-02  3.653705076620E-01  2.691213954688E-01
     89 T   1 H    -1.867576556404E-01  2.305195425694E-01 -4.145205911552E-01
     90 F   1 H    -3.132423443606E-01 -2.305195425694E-01  8.547940884568E-02
     91 F   1 H     3.132423443606E-01  2.694804574303E-01  4.145205911552E-01
     92 F   1 H     1.867576556404E-01 -2.694804574303E-01 -8.547940884568E-02
     93 F   1 H     1.867576556404E-01 -2.305195425694E-01  4.145205911552E-01
     94 F   1 H     3.132423443606E-01  2.305195425694E-01 -8.547940884568E-02
     95 F   1 H    -3.132423443606E-01 -2.694804574303E-01 -4.145205911552E-01
     96 F   1 H    -1.867576556404E-01  2.694804574303E-01  8.547940884568E-02
     97 T   1 H     9.994496625470E-02  1.866316761110E-01 -1.091064238993E-01
     98 F   1 H     4.000550337462E-01 -1.866316761110E-01  3.908935761016E-01
     99 F   1 H    -4.000550337462E-01  3.133683238887E-01  1.091064238993E-01
    100 F   1 H    -9.994496625470E-02 -3.133683238887E-01 -3.908935761016E-01
    101 F   1 H    -9.994496625470E-02 -1.866316761110E-01  1.091064238993E-01
    102 F   1 H    -4.000550337462E-01  1.866316761110E-01 -3.908935761016E-01
    103 F   1 H     4.000550337462E-01 -3.133683238887E-01 -1.091064238993E-01
    104 F   1 H     9.994496625470E-02  3.133683238887E-01  3.908935761016E-01
    105 T   1 H    -2.023461752286E-01  3.483030624615E-01 -1.116632776479E-01
    106 F   1 H    -2.976538247723E-01 -3.483030624615E-01  3.883367223529E-01
    107 F   1 H     2.976538247723E-01  1.516969375382E-01  1.116632776479E-01
    108 F   1 H     2.023461752286E-01 -1.516969375382E-01 -3.883367223529E-01
    109 F   1 H     2.023461752286E-01 -3.483030624615E-01  1.116632776479E-01
    110 F   1 H     2.976538247723E-01  3.483030624615E-01 -3.883367223529E-01
    111 F   1 H    -2.976538247723E-01 -1.516969375382E-01 -1.116632776479E-01
    112 F   1 H    -2.023461752286E-01  1.516969375382E-01  3.883367223529E-01
    113 T   1 H    -3.085753551032E-01  3.643077894097E-01 -2.332986443929E-01
    114 F   1 H    -1.914246448977E-01 -3.643077894097E-01  2.667013556079E-01
    115 F   1 H     1.914246448977E-01  1.356922105900E-01  2.332986443929E-01
    116 F   1 H     3.085753551032E-01 -1.356922105900E-01 -2.667013556079E-01
    117 F   1 H     3.085753551032E-01 -3.643077894097E-01  2.332986443929E-01
    118 F   1 H     1.914246448977E-01  3.643077894097E-01 -2.667013556079E-01
    119 F   1 H    -1.914246448977E-01 -1.356922105900E-01 -2.332986443929E-01
    120 F   1 H    -3.085753551032E-01  1.356922105900E-01  2.667013556079E-01
    121 T   1 H     1.330018448036E-01  3.602302482101E-01  3.823049388002E-02
    122 F   1 H     3.669981551973E-01 -3.602302482101E-01 -4.617695061208E-01
    123 F   1 H    -3.669981551973E-01  1.397697517896E-01 -3.823049388002E-02
    124 F   1 H    -1.330018448036E-01 -1.397697517896E-01  4.617695061208E-01
    125 F   1 H    -1.330018448036E-01 -3.602302482101E-01 -3.823049388002E-02
    126 F   1 H    -3.669981551973E-01  3.602302482101E-01  4.617695061208E-01
    127 F   1 H     3.669981551973E-01 -1.397697517896E-01  3.823049388002E-02
    128 F   1 H     1.330018448036E-01  1.397697517896E-01 -4.617695061208E-01
    129 T   1 H     1.564835865305E-01  1.209379179393E-01  1.240982349047E-02
    130 F   1 H     3.435164134704E-01 -1.209379179393E-01 -4.875901765104E-01
    131 F   1 H    -3.435164134704E-01  3.790620820604E-01 -1.240982349047E-02
    132 F   1 H    -1.564835865305E-01 -3.790620820604E-01  4.875901765104E-01
    133 F   1 H    -1.564835865305E-01 -1.209379179393E-01 -1.240982349047E-02
    134 F   1 H    -3.435164134704E-01  1.209379179393E-01  4.875901765104E-01
    135 F   1 H     3.435164134704E-01 -3.790620820604E-01  1.240982349047E-02
    136 F   1 H     1.564835865305E-01  3.790620820604E-01 -4.875901765104E-01
    137 T   1 H     6.561304310245E-02  1.772254802106E-01  9.134535019311E-02
    138 F   1 H     4.343869568986E-01 -1.772254802106E-01 -4.086546498078E-01
    139 F   1 H    -4.343869568986E-01  3.227745197891E-01 -9.134535019311E-02
    140 F   1 H    -6.561304310245E-02 -3.227745197891E-01  4.086546498078E-01
    141 F   1 H    -6.561304310245E-02 -1.772254802106E-01 -9.134535019311E-02
    142 F   1 H    -4.343869568986E-01  1.772254802106E-01  4.086546498078E-01
    143 F   1 H     4.343869568986E-01 -3.227745197891E-01  9.134535019311E-02
    144 F   1 H     6.561304310245E-02  3.227745197891E-01 -4.086546498078E-01
    145 T   1 H    -3.598756752981E-02  8.136229003412E-02 -3.521123734523E-01
    146 F   1 H    -4.640124324711E-01 -8.136229003412E-02  1.478876265486E-01
    147 F   1 H     4.640124324711E-01  4.186377099656E-01  3.521123734523E-01
    148 F   1 H     3.598756752981E-02 -4.186377099656E-01 -1.478876265486E-01
    149 F   1 H     3.598756752981E-02 -8.136229003412E-02  3.521123734523E-01
    150 F   1 H     4.640124324711E-01  8.136229003412E-02 -1.478876265486E-01
    151 F   1 H    -4.640124324711E-01 -4.186377099656E-01 -3.521123734523E-01
    152 F   1 H    -3.598756752981E-02  4.186377099656E-01  1.478876265486E-01
    153 T   1 H     7.149468952595E-02  6.778206800815E-02 -2.312287071147E-01
    154 F   1 H     4.285053104750E-01 -6.778206800815E-02  2.687712928861E-01
    155 F   1 H    -4.285053104750E-01  4.322179319916E-01  2.312287071147E-01
    156 F   1 H    -7.149468952595E-02 -4.322179319916E-01 -2.687712928861E-01
    157 F   1 H    -7.149468952595E-02 -6.778206800815E-02  2.312287071147E-01
    158 F   1 H    -4.285053104750E-01  6.778206800815E-02 -2.687712928861E-01
    159 F   1 H     4.285053104750E-01 -4.322179319916E-01 -2.312287071147E-01
    160 F   1 H     7.149468952595E-02  4.322179319916E-01  2.687712928861E-01

 T = ATOM BELONGING TO THE ASYMMETRIC UNIT
 *******************************************************************************
 * GEOMETRY EDITING - INPUT COORDINATES ARE GIVEN IN ANGSTROM         
 *******************************************************************************

 GEOMETRY NOW FULLY CONSISTENT WITH THE GROUP

 FRQFRQFRQFRQFRQFRQFRQFRQFRQFRQFRQFRQFRQFRQFRQFRQFRQFRQFRQFRQFRQFRQFRQFRQFRQFRQ

                       FREQUENCY CALCULATION

 INFORMATION **** INPFREQ **** FREQUENCY CALCULATION RESTART(DATA FROM FREQINFO.DAT)
 INFORMATION **** INPFREQ ****  PRINTING OF EIGENVECTORS
 INFORMATION **** INPFREQ **** NEW DEFAULT - IMPOSING ECKART CONDITIONS TO THE HESSIAN

 GCALCO - MAX INDICES DIRECT LATTICE VECTOR    14    24     9
 NO.OF VECTORS CREATED 6999 STARS 1061 RMAX   251.57670 BOHR

 GEOMETRY FOR WAVE FUNCTION - DIMENSIONALITY OF THE SYSTEM    3
 (NON PERIODIC DIRECTION: LATTICE PARAMETER FORMALLY SET TO 500)
 *******************************************************************************
 LATTICE PARAMETERS (ANGSTROMS AND DEGREES) - BOHR = 0.5291772083 ANGSTROM
 PRIMITIVE CELL - CENTRING CODE 1/0 VOLUME=  1410.399643 - DENSITY  1.423 g/cm^3
         A              B              C           ALPHA      BETA       GAMMA 
    11.73455009     7.02572647    17.10741964    90.000000  90.000000  90.000000
 *******************************************************************************
 ATOMS IN THE ASYMMETRIC UNIT   20 - ATOMS IN THE UNIT CELL:  160
     ATOM                 X/A                 Y/B                 Z/C    
 *******************************************************************************
      1 T   8 O    -2.378459999478E-01  2.471473551821E-01 -3.695523047036E-01
      2 F   8 O    -2.621540000513E-01 -2.471473551821E-01  1.304476952969E-01
      3 F   8 O     2.621540000530E-01  2.528526448179E-01  3.695523047036E-01
      4 F   8 O     2.378459999478E-01 -2.528526448179E-01 -1.304476952958E-01
      5 F   8 O     2.378459999478E-01 -2.471473551821E-01  3.695523047036E-01
      6 F   8 O     2.621540000530E-01  2.471473551821E-01 -1.304476952958E-01
      7 F   8 O    -2.621540000513E-01 -2.528526448179E-01 -3.695523047036E-01
      8 F   8 O    -2.378459999478E-01  2.528526448179E-01  1.304476952969E-01
      9 T   8 O    -1.049268599733E-01  2.729817920196E-01  2.846023687566E-03
     10 F   8 O    -3.950731400258E-01 -2.729817920196E-01 -4.971539763118E-01
     11 F   8 O     3.950731400275E-01  2.270182079804E-01 -2.846023687566E-03
     12 F   8 O     1.049268599733E-01 -2.270182079804E-01  4.971539763130E-01
     13 F   8 O     1.049268599733E-01 -2.729817920196E-01 -2.846023687566E-03
     14 F   8 O     3.950731400275E-01  2.729817920196E-01  4.971539763130E-01
     15 F   8 O    -3.950731400258E-01 -2.270182079804E-01  2.846023687566E-03
     16 F   8 O    -1.049268599733E-01  2.270182079804E-01 -4.971539763118E-01
     17 T   7 N     1.611188423675E-02  2.047706623912E-01 -9.621482830469E-02
     18 F   7 N     4.838881157641E-01 -2.047706623912E-01  4.037851716959E-01
     19 F   7 N    -4.838881157624E-01  2.952293376088E-01  9.621482830469E-02
     20 F   7 N    -1.611188423675E-02 -2.952293376088E-01 -4.037851716947E-01
     21 F   7 N    -1.611188423675E-02 -2.047706623912E-01  9.621482830469E-02
     22 F   7 N    -4.838881157624E-01  2.047706623912E-01 -4.037851716947E-01
     23 F   7 N     4.838881157641E-01 -2.952293376088E-01 -9.621482830469E-02
     24 F   7 N     1.611188423675E-02  2.952293376088E-01  4.037851716959E-01
     25 T   6 C    -1.787579404670E-01  2.299665626082E-01 -3.023041427758E-01
     26 F   6 C    -3.212420595322E-01 -2.299665626082E-01  1.976958572247E-01
     27 F   6 C     3.212420595339E-01  2.700334373918E-01  3.023041427758E-01
     28 F   6 C     1.787579404670E-01 -2.700334373918E-01 -1.976958572236E-01
     29 F   6 C     1.787579404670E-01 -2.299665626082E-01  3.023041427758E-01
     30 F   6 C     3.212420595339E-01  2.299665626082E-01 -1.976958572236E-01
     31 F   6 C    -3.212420595322E-01 -2.700334373918E-01 -3.023041427758E-01
     32 F   6 C    -1.787579404670E-01  2.700334373918E-01  1.976958572247E-01
     33 T   6 C    -5.584629103691E-02  2.097637830758E-01 -1.619560343456E-01
     34 F   6 C    -4.441537089622E-01 -2.097637830758E-01  3.380439656550E-01
     35 F   6 C     4.441537089639E-01  2.902362169242E-01  1.619560343456E-01
     36 F   6 C     5.584629103691E-02 -2.902362169242E-01 -3.380439656538E-01
     37 F   6 C     5.584629103691E-02 -2.097637830758E-01  1.619560343456E-01
     38 F   6 C     4.441537089639E-01  2.097637830758E-01 -3.380439656538E-01
     39 F   6 C    -4.441537089622E-01 -2.902362169242E-01 -1.619560343456E-01
     40 F   6 C    -5.584629103691E-02  2.902362169242E-01  3.380439656550E-01
     41 T   6 C    -1.645068757765E-01  2.892809482251E-01 -1.636109795657E-01
     42 F   6 C    -3.354931242227E-01 -2.892809482251E-01  3.363890204349E-01
     43 F   6 C     3.354931242244E-01  2.107190517749E-01  1.636109795657E-01
     44 F   6 C     1.645068757765E-01 -2.107190517749E-01 -3.363890204338E-01
     45 F   6 C     1.645068757765E-01 -2.892809482251E-01  1.636109795657E-01
     46 F   6 C     3.354931242244E-01  2.892809482251E-01 -3.363890204338E-01
     47 F   6 C    -3.354931242227E-01 -2.107190517749E-01 -1.636109795657E-01
     48 F   6 C    -1.645068757765E-01  2.107190517749E-01  3.363890204349E-01
     49 T   6 C    -2.251150958745E-01  2.988765261365E-01 -2.331246549668E-01
     50 F   6 C    -2.748849041246E-01 -2.988765261365E-01  2.668753450338E-01
     51 F   6 C     2.748849041263E-01  2.011234738635E-01  2.331246549668E-01
     52 F   6 C     2.251150958745E-01 -2.011234738635E-01 -2.668753450326E-01
     53 F   6 C     2.251150958745E-01 -2.988765261365E-01  2.331246549668E-01
     54 F   6 C     2.748849041263E-01  2.988765261365E-01 -2.668753450326E-01
     55 F   6 C    -2.748849041246E-01 -2.011234738635E-01 -2.331246549668E-01
     56 F   6 C    -2.251150958745E-01  2.011234738635E-01  2.668753450338E-01
     57 T   6 C     9.259755956615E-02  2.209034298339E-01  3.329777083520E-02
     58 F   6 C     4.074024404347E-01 -2.209034298339E-01 -4.667022291642E-01
     59 F   6 C    -4.074024404330E-01  2.790965701661E-01 -3.329777083520E-02
     60 F   6 C    -9.259755956615E-02 -2.790965701661E-01  4.667022291654E-01
     61 F   6 C    -9.259755956615E-02 -2.209034298339E-01 -3.329777083520E-02
     62 F   6 C    -4.074024404330E-01  2.209034298339E-01  4.667022291654E-01
     63 F   6 C     4.074024404347E-01 -2.790965701661E-01  3.329777083520E-02
     64 F   6 C     9.259755956615E-02  2.790965701661E-01 -4.667022291642E-01
     65 T   6 C    -7.211645086959E-02  1.437882761819E-01 -2.999869365322E-01
     66 F   6 C    -4.278835491296E-01 -1.437882761819E-01  2.000130634684E-01
     67 F   6 C     4.278835491313E-01  3.562117238181E-01  2.999869365322E-01
     68 F   6 C     7.211645086959E-02 -3.562117238181E-01 -2.000130634672E-01
     69 F   6 C     7.211645086959E-02 -1.437882761819E-01  2.999869365322E-01
     70 F   6 C     4.278835491313E-01  1.437882761819E-01 -2.000130634672E-01
     71 F   6 C    -4.278835491296E-01 -3.562117238181E-01 -2.999869365322E-01
     72 F   6 C    -7.211645086959E-02  3.562117238181E-01  2.000130634684E-01
     73 T   6 C    -8.400756000873E-03  2.344255873210E-01 -2.064989654990E-02
     74 F   6 C    -4.915992439983E-01 -2.344255873210E-01  4.793501034507E-01
     75 F   6 C     4.915992440000E-01  2.655744126790E-01  2.064989654990E-02
     76 F   6 C     8.400756000873E-03 -2.655744126790E-01 -4.793501034495E-01
     77 F   6 C     8.400756000873E-03 -2.344255873210E-01  2.064989654990E-02
     78 F   6 C     4.915992440000E-01  2.344255873210E-01 -4.793501034495E-01
     79 F   6 C    -4.915992439983E-01 -2.655744126790E-01 -2.064989654990E-02
     80 F   6 C    -8.400756000873E-03  2.655744126790E-01  4.793501034507E-01
     81 T   6 C    -1.164403458171E-02  1.346294923379E-01 -2.308786045321E-01
     82 F   6 C    -4.883559654174E-01 -1.346294923379E-01  2.691213954685E-01
     83 F   6 C     4.883559654191E-01  3.653705076621E-01  2.308786045321E-01
     84 F   6 C     1.164403458171E-02 -3.653705076621E-01 -2.691213954674E-01
     85 F   6 C     1.164403458171E-02 -1.346294923379E-01  2.308786045321E-01
     86 F   6 C     4.883559654191E-01  1.346294923379E-01 -2.691213954674E-01
     87 F   6 C    -4.883559654174E-01 -3.653705076621E-01 -2.308786045321E-01
     88 F   6 C    -1.164403458171E-02  3.653705076621E-01  2.691213954685E-01
     89 T   1 H    -1.867576556404E-01  2.305195425694E-01 -4.145205911552E-01
     90 F   1 H    -3.132423443587E-01 -2.305195425694E-01  8.547940884539E-02
     91 F   1 H     3.132423443604E-01  2.694804574306E-01  4.145205911552E-01
     92 F   1 H     1.867576556404E-01 -2.694804574306E-01 -8.547940884422E-02
     93 F   1 H     1.867576556404E-01 -2.305195425694E-01  4.145205911552E-01
     94 F   1 H     3.132423443604E-01  2.305195425694E-01 -8.547940884422E-02
     95 F   1 H    -3.132423443587E-01 -2.694804574306E-01 -4.145205911552E-01
     96 F   1 H    -1.867576556404E-01  2.694804574306E-01  8.547940884539E-02
     97 T   1 H     9.994496625470E-02  1.866316761110E-01 -1.091064238993E-01
     98 F   1 H     4.000550337461E-01 -1.866316761110E-01  3.908935761013E-01
     99 F   1 H    -4.000550337444E-01  3.133683238890E-01  1.091064238993E-01
    100 F   1 H    -9.994496625470E-02 -3.133683238890E-01 -3.908935761002E-01
    101 F   1 H    -9.994496625470E-02 -1.866316761110E-01  1.091064238993E-01
    102 F   1 H    -4.000550337444E-01  1.866316761110E-01 -3.908935761002E-01
    103 F   1 H     4.000550337461E-01 -3.133683238890E-01 -1.091064238993E-01
    104 F   1 H     9.994496625470E-02  3.133683238890E-01  3.908935761013E-01
    105 T   1 H    -2.023461752286E-01  3.483030624615E-01 -1.116632776479E-01
    106 F   1 H    -2.976538247705E-01 -3.483030624615E-01  3.883367223527E-01
    107 F   1 H     2.976538247722E-01  1.516969375385E-01  1.116632776479E-01
    108 F   1 H     2.023461752286E-01 -1.516969375385E-01 -3.883367223515E-01
    109 F   1 H     2.023461752286E-01 -3.483030624615E-01  1.116632776479E-01
    110 F   1 H     2.976538247722E-01  3.483030624615E-01 -3.883367223515E-01
    111 F   1 H    -2.976538247705E-01 -1.516969375385E-01 -1.116632776479E-01
    112 F   1 H    -2.023461752286E-01  1.516969375385E-01  3.883367223527E-01
    113 T   1 H    -3.085753551032E-01  3.643077894097E-01 -2.332986443929E-01
    114 F   1 H    -1.914246448959E-01 -3.643077894097E-01  2.667013556077E-01
    115 F   1 H     1.914246448976E-01  1.356922105903E-01  2.332986443929E-01
    116 F   1 H     3.085753551032E-01 -1.356922105903E-01 -2.667013556065E-01
    117 F   1 H     3.085753551032E-01 -3.643077894097E-01  2.332986443929E-01
    118 F   1 H     1.914246448976E-01  3.643077894097E-01 -2.667013556065E-01
    119 F   1 H    -1.914246448959E-01 -1.356922105903E-01 -2.332986443929E-01
    120 F   1 H    -3.085753551032E-01  1.356922105903E-01  2.667013556077E-01
    121 T   1 H     1.330018448036E-01  3.602302482101E-01  3.823049388002E-02
    122 F   1 H     3.669981551972E-01 -3.602302482101E-01 -4.617695061194E-01
    123 F   1 H    -3.669981551955E-01  1.397697517899E-01 -3.823049388002E-02
    124 F   1 H    -1.330018448036E-01 -1.397697517899E-01  4.617695061206E-01
    125 F   1 H    -1.330018448036E-01 -3.602302482101E-01 -3.823049388002E-02
    126 F   1 H    -3.669981551955E-01  3.602302482101E-01  4.617695061206E-01
    127 F   1 H     3.669981551972E-01 -1.397697517899E-01  3.823049388002E-02
    128 F   1 H     1.330018448036E-01  1.397697517899E-01 -4.617695061194E-01
    129 T   1 H     1.564835865305E-01  1.209379179393E-01  1.240982349047E-02
    130 F   1 H     3.435164134703E-01 -1.209379179393E-01 -4.875901765089E-01
    131 F   1 H    -3.435164134686E-01  3.790620820607E-01 -1.240982349047E-02
    132 F   1 H    -1.564835865305E-01 -3.790620820607E-01  4.875901765101E-01
    133 F   1 H    -1.564835865305E-01 -1.209379179393E-01 -1.240982349047E-02
    134 F   1 H    -3.435164134686E-01  1.209379179393E-01  4.875901765101E-01
    135 F   1 H     3.435164134703E-01 -3.790620820607E-01  1.240982349047E-02
    136 F   1 H     1.564835865305E-01  3.790620820607E-01 -4.875901765089E-01
    137 T   1 H     6.561304310245E-02  1.772254802106E-01  9.134535019311E-02
    138 F   1 H     4.343869568984E-01 -1.772254802106E-01 -4.086546498063E-01
    139 F   1 H    -4.343869568967E-01  3.227745197894E-01 -9.134535019311E-02
    140 F   1 H    -6.561304310245E-02 -3.227745197894E-01  4.086546498075E-01
    141 F   1 H    -6.561304310245E-02 -1.772254802106E-01 -9.134535019311E-02
    142 F   1 H    -4.343869568967E-01  1.772254802106E-01  4.086546498075E-01
    143 F   1 H     4.343869568984E-01 -3.227745197894E-01  9.134535019311E-02
    144 F   1 H     6.561304310245E-02  3.227745197894E-01 -4.086546498063E-01
    145 T   1 H    -3.598756752981E-02  8.136229003412E-02 -3.521123734523E-01
    146 F   1 H    -4.640124324693E-01 -8.136229003412E-02  1.478876265483E-01
    147 F   1 H     4.640124324710E-01  4.186377099659E-01  3.521123734523E-01
    148 F   1 H     3.598756752981E-02 -4.186377099659E-01 -1.478876265471E-01
    149 F   1 H     3.598756752981E-02 -8.136229003412E-02  3.521123734523E-01
    150 F   1 H     4.640124324710E-01  8.136229003412E-02 -1.478876265471E-01
    151 F   1 H    -4.640124324693E-01 -4.186377099659E-01 -3.521123734523E-01
    152 F   1 H    -3.598756752981E-02  4.186377099659E-01  1.478876265483E-01
    153 T   1 H     7.149468952595E-02  6.778206800815E-02 -2.312287071147E-01
    154 F   1 H     4.285053104749E-01 -6.778206800815E-02  2.687712928859E-01
    155 F   1 H    -4.285053104732E-01  4.322179319918E-01  2.312287071147E-01
    156 F   1 H    -7.149468952595E-02 -4.322179319918E-01 -2.687712928847E-01
    157 F   1 H    -7.149468952595E-02 -6.778206800815E-02  2.312287071147E-01
    158 F   1 H    -4.285053104732E-01  6.778206800815E-02 -2.687712928847E-01
    159 F   1 H     4.285053104749E-01 -4.322179319918E-01 -2.312287071147E-01
    160 F   1 H     7.149468952595E-02  4.322179319918E-01  2.687712928859E-01

 T = ATOM BELONGING TO THE ASYMMETRIC UNIT

 ****    8 SYMMOPS - TRANSLATORS IN FRACTIONAL UNITS
 **** MATRICES AND TRANSLATORS IN THE CRYSTALLOGRAPHIC REFERENCE FRAME
   V INV                    ROTATION MATRICES                   TRANSLATORS
   1   1  1.00  0.00  0.00  0.00  1.00  0.00  0.00  0.00  1.00  0.00  0.00  0.00
   2   2 -1.00  0.00  0.00  0.00 -1.00  0.00  0.00  0.00  1.00  0.50  0.00  0.50
   3   3  1.00  0.00  0.00  0.00 -1.00  0.00  0.00  0.00 -1.00  0.50  0.50  0.00
   4   4 -1.00  0.00  0.00  0.00  1.00  0.00  0.00  0.00 -1.00  0.00  0.50  0.50
   5   5 -1.00  0.00  0.00  0.00 -1.00  0.00  0.00  0.00 -1.00  0.00  0.00  0.00
   6   6  1.00  0.00  0.00  0.00  1.00  0.00  0.00  0.00 -1.00  0.50  0.00  0.50
   7   7 -1.00  0.00  0.00  0.00  1.00  0.00  0.00  0.00  1.00  0.50  0.50  0.00
   8   8  1.00  0.00  0.00  0.00 -1.00  0.00  0.00  0.00  1.00  0.00  0.50  0.50

 DIRECT LATTICE VECTORS CARTESIAN COMPONENTS (ANGSTROM)
          X                    Y                    Z
   0.117345500932E+02   0.000000000000E+00   0.000000000000E+00
   0.000000000000E+00   0.702572646622E+01   0.000000000000E+00
   0.000000000000E+00   0.000000000000E+00   0.171074196405E+02


 CARTESIAN COORDINATES - PRIMITIVE CELL
 *******************************************************************************
 *      ATOM          X(ANGSTROM)         Y(ANGSTROM)         Z(ANGSTROM)
 *******************************************************************************
    1     8 O    -2.791015800855E+00  1.736389714359E+00 -6.322086355679E+00
    2     8 O    -3.076259245735E+00 -1.736389714359E+00  2.231623464581E+00
    3     8 O     3.076259245755E+00  1.776473518751E+00  6.322086355679E+00
    4     8 O     2.791015800855E+00 -1.776473518751E+00 -2.231623464561E+00
    5     8 O     2.791015800855E+00 -1.736389714359E+00  6.322086355679E+00
    6     8 O     3.076259245755E+00  1.736389714359E+00 -2.231623464561E+00
    7     8 O    -3.076259245735E+00 -1.776473518751E+00 -6.322086355679E+00
    8     8 O    -2.791015800855E+00  1.776473518751E+00  2.231623464581E+00
    9     8 O    -1.231269494479E+00  1.917895400988E+00  4.868812153000E-02
   10     8 O    -4.636005552111E+00 -1.917895400988E+00 -8.505021698710E+00
   11     8 O     4.636005552131E+00  1.594967832122E+00 -4.868812153000E-02
   12     8 O     1.231269494479E+00 -1.594967832122E+00  8.505021698730E+00
   13     8 O     1.231269494479E+00 -1.917895400988E+00 -4.868812153000E-02
   14     8 O     4.636005552131E+00  1.917895400988E+00  8.505021698730E+00
   15     8 O    -4.636005552111E+00 -1.594967832122E+00  4.868812153000E-02
   16     8 O    -1.231269494479E+00  1.594967832122E+00 -8.505021698710E+00
   17     7 N     1.890657126720E-01  1.438662662267E+00 -1.645987443447E+00
   18     7 N     5.678209333938E+00 -1.438662662267E+00  6.907722376813E+00
   19     7 N    -5.678209333918E+00  2.074200570843E+00  1.645987443447E+00
   20     7 N    -1.890657126720E-01 -2.074200570843E+00 -6.907722376793E+00
   21     7 N    -1.890657126720E-01 -1.438662662267E+00  1.645987443447E+00
   22     7 N    -5.678209333918E+00  1.438662662267E+00 -6.907722376793E+00
   23     7 N     5.678209333938E+00 -2.074200570843E+00 -1.645987443447E+00
   24     7 N     1.890657126720E-01  2.074200570843E+00  6.907722376813E+00
   25     6 C    -2.097644006967E+00  1.615682165262E+00 -5.171643829528E+00
   26     6 C    -3.769631039623E+00 -1.615682165262E+00  3.382065990732E+00
   27     6 C     3.769631039643E+00  1.897181067848E+00  5.171643829528E+00
   28     6 C     2.097644006967E+00 -1.897181067848E+00 -3.382065990712E+00
   29     6 C     2.097644006967E+00 -1.615682165262E+00  5.171643829528E+00
   30     6 C     3.769631039643E+00  1.615682165262E+00 -3.382065990712E+00
   31     6 C    -3.769631039623E+00 -1.897181067848E+00 -5.171643829528E+00
   32     6 C    -2.097644006967E+00  1.897181067848E+00  3.382065990732E+00
   33     6 C    -6.553310996920E-01  1.473742962410E+00 -2.770649842862E+00
   34     6 C    -5.211943946898E+00 -1.473742962410E+00  5.783059977398E+00
   35     6 C     5.211943946918E+00  2.039120270700E+00  2.770649842862E+00
   36     6 C     6.553310996920E-01 -2.039120270700E+00 -5.783059977378E+00
   37     6 C     6.553310996920E-01 -1.473742962410E+00  2.770649842862E+00
   38     6 C     5.211943946918E+00  1.473742962410E+00 -5.783059977378E+00
   39     6 C    -5.211943946898E+00 -2.039120270700E+00 -2.770649842862E+00
   40     6 C    -6.553310996920E-01  2.039120270700E+00  5.783059977398E+00
   41     6 C    -1.930414174475E+00  2.032408814118E+00 -2.798961685223E+00
   42     6 C    -3.936860872115E+00 -2.032408814118E+00  5.754748135037E+00
   43     6 C     3.936860872135E+00  1.480454418992E+00  2.798961685223E+00
   44     6 C     1.930414174475E+00 -1.480454418992E+00 -5.754748135017E+00
   45     6 C     1.930414174475E+00 -2.032408814118E+00  2.798961685223E+00
   46     6 C     3.936860872135E+00  2.032408814118E+00 -5.754748135017E+00
   47     6 C    -3.936860872115E+00 -1.480454418992E+00 -2.798961685223E+00
   48     6 C    -1.930414174475E+00  1.480454418992E+00  5.754748135037E+00
   49     6 C    -2.641624369275E+00  2.099824719809E+00 -3.988161301064E+00
   50     6 C    -3.225650677315E+00 -2.099824719809E+00  4.565548519196E+00
   51     6 C     3.225650677335E+00  1.413038513301E+00  3.988161301064E+00
   52     6 C     2.641624369275E+00 -1.413038513301E+00 -4.565548519176E+00
   53     6 C     2.641624369275E+00 -2.099824719809E+00  3.988161301064E+00
   54     6 C     3.225650677335E+00  2.099824719809E+00 -4.565548519176E+00
   55     6 C    -3.225650677315E+00 -1.413038513301E+00 -3.988161301064E+00
   56     6 C    -2.641624369275E+00  1.413038513301E+00  4.565548519196E+00
   57     6 C     1.086590701237E+00  1.552007073463E+00  5.696389387710E-01
   58     6 C     4.780684345373E+00 -1.552007073463E+00 -7.984070881469E+00
   59     6 C    -4.780684345353E+00  1.960856159647E+00 -5.696389387710E-01
   60     6 C    -1.086590701237E+00 -1.960856159647E+00  7.984070881489E+00
   61     6 C    -1.086590701237E+00 -1.552007073463E+00 -5.696389387710E-01
   62     6 C    -4.780684345353E+00  1.552007073463E+00  7.984070881489E+00
   63     6 C     4.780684345373E+00 -1.960856159647E+00  5.696389387710E-01
   64     6 C     1.086590701237E+00  1.960856159647E+00 -7.984070881469E+00
   65     6 C    -8.462541052730E-01  1.010217097503E+00 -5.132002409924E+00
   66     6 C    -5.021020941317E+00 -1.010217097503E+00  3.421707410336E+00
   67     6 C     5.021020941337E+00  2.502646135607E+00  5.132002409924E+00
   68     6 C     8.462541052730E-01 -2.502646135607E+00 -3.421707410316E+00
   69     6 C     8.462541052730E-01 -1.010217097503E+00  5.132002409924E+00
   70     6 C     5.021020941337E+00  1.010217097503E+00 -3.421707410316E+00
   71     6 C    -5.021020941317E+00 -2.502646135607E+00 -5.132002409924E+00
   72     6 C    -8.462541052730E-01  2.502646135607E+00  3.421707410336E+00
   73     6 C    -9.857909211300E-02  1.647010053200E+00 -3.532664458120E-01
   74     6 C    -5.768695954477E+00 -1.647010053200E+00  8.200443374448E+00
   75     6 C     5.768695954497E+00  1.865853179910E+00  3.532664458120E-01
   76     6 C     9.857909211300E-02 -1.865853179910E+00 -8.200443374428E+00
   77     6 C     9.857909211300E-02 -1.647010053200E+00  3.532664458120E-01
   78     6 C     5.768695954497E+00  1.647010053200E+00 -8.200443374428E+00
   79     6 C    -5.768695954477E+00 -1.865853179910E+00 -3.532664458120E-01
   80     6 C    -9.857909211300E-02  1.865853179910E+00  8.200443374448E+00
   81     6 C    -1.366375070860E-01  9.458699874520E-01 -3.949737173743E+00
   82     6 C    -5.730637539504E+00 -9.458699874520E-01  4.603972646517E+00
   83     6 C     5.730637539524E+00  2.566993245658E+00  3.949737173743E+00
   84     6 C     1.366375070860E-01 -2.566993245658E+00 -4.603972646497E+00
   85     6 C     1.366375070860E-01 -9.458699874520E-01  3.949737173743E+00
   86     6 C     5.730637539524E+00  9.458699874520E-01 -4.603972646497E+00
   87     6 C    -5.730637539504E+00 -2.566993245658E+00 -3.949737173743E+00
   88     6 C    -1.366375070860E-01  2.566993245658E+00  4.603972646517E+00
   89     1 H    -2.191517065401E+00  1.619567251211E+00 -7.091377702520E+00
   90     1 H    -3.675757981189E+00 -1.619567251211E+00  1.462332117740E+00
   91     1 H     3.675757981209E+00  1.893295981899E+00  7.091377702520E+00
   92     1 H     2.191517065401E+00 -1.893295981899E+00 -1.462332117720E+00
   93     1 H     2.191517065401E+00 -1.619567251211E+00  7.091377702520E+00
   94     1 H     3.675757981209E+00  1.619567251211E+00 -1.462332117720E+00
   95     1 H    -3.675757981189E+00 -1.893295981899E+00 -7.091377702520E+00
   96     1 H    -2.191517065401E+00  1.893295981899E+00  1.462332117740E+00
   97     1 H     1.172809213079E+00  1.311223106288E+00 -1.866529379119E+00
   98     1 H     4.694465833531E+00 -1.311223106288E+00  6.687180441141E+00
   99     1 H    -4.694465833511E+00  2.201640126822E+00  1.866529379119E+00
  100     1 H    -1.172809213079E+00 -2.201640126822E+00 -6.687180441121E+00
  101     1 H    -1.172809213079E+00 -1.311223106288E+00  1.866529379119E+00
  102     1 H    -4.694465833511E+00  1.311223106288E+00 -6.687180441121E+00
  103     1 H     4.694465833531E+00 -2.201640126822E+00 -1.866529379119E+00
  104     1 H     1.172809213079E+00  2.201640126822E+00  6.687180441141E+00
  105     1 H    -2.374441329388E+00  2.447082044201E+00 -1.910270549156E+00
  106     1 H    -3.492833717202E+00 -2.447082044201E+00  6.643439271104E+00
  107     1 H     3.492833717222E+00  1.065781188909E+00  1.910270549156E+00
  108     1 H     2.374441329388E+00 -1.065781188909E+00 -6.643439271084E+00
  109     1 H     2.374441329388E+00 -2.447082044201E+00  1.910270549156E+00
  110     1 H     3.492833717222E+00  2.447082044201E+00 -6.643439271084E+00
  111     1 H    -3.492833717202E+00 -1.065781188909E+00 -1.910270549156E+00
  112     1 H    -2.374441329388E+00  1.065781188909E+00  6.643439271104E+00
  113     1 H    -3.620992961986E+00  2.559526877906E+00 -3.991137811189E+00
  114     1 H    -2.246282084604E+00 -2.559526877906E+00  4.562572009071E+00
  115     1 H     2.246282084624E+00  9.533363552040E-01  3.991137811189E+00
  116     1 H     3.620992961986E+00 -9.533363552040E-01 -4.562572009051E+00
  117     1 H     3.620992961986E+00 -2.559526877906E+00  3.991137811189E+00
  118     1 H     2.246282084624E+00  2.559526877906E+00 -4.562572009051E+00
  119     1 H    -2.246282084604E+00 -9.533363552040E-01 -3.991137811189E+00
  120     1 H    -3.620992961986E+00  9.533363552040E-01  4.562572009071E+00
  121     1 H     1.560716810336E+00  2.530879188783E+00  6.540251018690E-01
  122     1 H     4.306558236274E+00 -2.530879188783E+00 -7.899684718371E+00
  123     1 H    -4.306558236254E+00  9.819840443270E-01 -6.540251018690E-01
  124     1 H    -1.560716810336E+00 -9.819840443270E-01  7.899684718391E+00
  125     1 H    -1.560716810336E+00 -2.530879188783E+00 -6.540251018690E-01
  126     1 H    -4.306558236254E+00  2.530879188783E+00  7.899684718391E+00
  127     1 H     4.306558236274E+00 -9.819840443270E-01  6.540251018690E-01
  128     1 H     1.560716810336E+00  9.819840443270E-01 -7.899684718371E+00
  129     1 H     1.836264484906E+00  8.496767308360E-01  2.123000581160E-01
  130     1 H     4.031010561704E+00 -8.496767308360E-01 -8.341409762124E+00
  131     1 H    -4.031010561684E+00  2.663186502274E+00 -2.123000581160E-01
  132     1 H    -1.836264484906E+00 -2.663186502274E+00  8.341409762144E+00
  133     1 H    -1.836264484906E+00 -8.496767308360E-01 -2.123000581160E-01
  134     1 H    -4.031010561684E+00  8.496767308360E-01  8.341409762144E+00
  135     1 H     4.031010561704E+00 -2.663186502274E+00  2.123000581160E-01
  136     1 H     1.836264484906E+00  2.663186502274E+00 -8.341409762124E+00
  137     1 H     7.699395410530E-01  1.245137746804E+00  1.562683237962E+00
  138     1 H     5.097335505557E+00 -1.245137746804E+00 -6.991026582278E+00
  139     1 H    -5.097335505537E+00  2.267725486306E+00 -1.562683237962E+00
  140     1 H    -7.699395410530E-01 -2.267725486306E+00  6.991026582298E+00
  141     1 H    -7.699395410530E-01 -1.245137746804E+00 -1.562683237962E+00
  142     1 H    -5.097335505537E+00  1.245137746804E+00  6.991026582298E+00
  143     1 H     5.097335505557E+00 -2.267725486306E+00  1.562683237962E+00
  144     1 H     7.699395410530E-01  2.267725486306E+00 -6.991026582278E+00
  145     1 H    -4.222979139110E-01  5.716291944450E-01 -6.023734133261E+00
  146     1 H    -5.444977132679E+00 -5.716291944450E-01  2.529975686999E+00
  147     1 H     5.444977132699E+00  2.941234038665E+00  6.023734133261E+00
  148     1 H     4.222979139110E-01 -2.941234038665E+00 -2.529975686979E+00
  149     1 H     4.222979139110E-01 -5.716291944450E-01  6.023734133261E+00
  150     1 H     5.444977132699E+00  5.716291944450E-01 -2.529975686979E+00
  151     1 H    -5.444977132679E+00 -2.941234038665E+00 -6.023734133261E+00
  152     1 H    -4.222979139110E-01  2.941234038665E+00  2.529975686999E+00
  153     1 H     8.389580156400E-01  4.762182691400E-01 -3.955726525542E+00
  154     1 H     5.028317030970E+00 -4.762182691400E-01  4.597983294718E+00
  155     1 H    -5.028317030950E+00  3.036644963970E+00  3.955726525542E+00
  156     1 H    -8.389580156400E-01 -3.036644963970E+00 -4.597983294698E+00
  157     1 H    -8.389580156400E-01 -4.762182691400E-01  3.955726525542E+00
  158     1 H    -5.028317030950E+00  4.762182691400E-01 -4.597983294698E+00
  159     1 H     5.028317030970E+00 -3.036644963970E+00 -3.955726525542E+00
  160     1 H     8.389580156400E-01  3.036644963970E+00  4.597983294718E+00

 *******************************************************************************
 STARTING BASIS SET HANDLING 
 *******************************************************************************

 Loading internal basis set: DEF2-MSVP           

 Please cite in your publication:
 Fully Optimized Contracted Gaussian Basis Sets for Atoms Li to Kr. A. Schfer, H. Horn and R. Ahlrichs; J. Chem. Phys. 97, 2571 (1992).                                                                                                                         
 S. Grimme, J. G. Brandenburg, C. Bannwarth, and A. Hansen, J. Chem. Phys., 143, 054107 (2015).                                                                                                                                                                  

 *******************************************************************************
 LOCAL ATOMIC FUNCTIONS BASIS SET
 *******************************************************************************
   ATOM   X(AU)   Y(AU)   Z(AU)  N. TYPE  EXPONENT  S COEF   P COEF   D/F/G COEF
 *******************************************************************************
   1 O   -5.274   3.281 -11.947
                                  1 S  
                                         6.773E+03 1.727E-03 0.000E+00 0.000E+00
                                         1.017E+03 1.325E-02 0.000E+00 0.000E+00
                                         2.313E+02 6.603E-02 0.000E+00 0.000E+00
                                         6.501E+01 2.353E-01 0.000E+00 0.000E+00
                                         2.050E+01 5.498E-01 0.000E+00 0.000E+00
                                  2 S  
                                         6.716E+00 1.000E+00 0.000E+00 0.000E+00
                                  3 S  
                                         1.147E+00 1.000E+00 0.000E+00 0.000E+00
                                  4 S  
                                         3.342E-01 1.000E+00 0.000E+00 0.000E+00
                           5-     7 P  
                                         1.769E+01 0.000E+00 4.359E-02 0.000E+00
                                         3.854E+00 0.000E+00 2.318E-01 0.000E+00
                                         1.047E+00 0.000E+00 5.146E-01 0.000E+00
                           8-    10 P  
                                         2.759E-01 0.000E+00 1.000E+00 0.000E+00
                          11-    15 D  
                                         8.000E-01 0.000E+00 0.000E+00 1.000E+00
   2 O   -5.813  -3.281   4.217
   3 O    5.813   3.357  11.947
   4 O    5.274  -3.357  -4.217
   5 O    5.274  -3.281  11.947
   6 O    5.813   3.281  -4.217
   7 O   -5.813  -3.357 -11.947
   8 O   -5.274   3.357   4.217
   9 O   -2.327   3.624   0.092
  10 O   -8.761  -3.624 -16.072
  11 O    8.761   3.014  -0.092
  12 O    2.327  -3.014  16.072
  13 O    2.327  -3.624  -0.092
  14 O    8.761   3.624  16.072
  15 O   -8.761  -3.014   0.092
  16 O   -2.327   3.014 -16.072
  17 N    0.357   2.719  -3.110
                                241 S  
                                         5.072E+03 1.707E-03 0.000E+00 0.000E+00
                                         7.614E+02 1.309E-02 0.000E+00 0.000E+00
                                         1.732E+02 6.510E-02 0.000E+00 0.000E+00
                                         4.867E+01 2.305E-01 0.000E+00 0.000E+00
                                         1.533E+01 5.330E-01 0.000E+00 0.000E+00
                                242 S  
                                         5.019E+00 1.000E+00 0.000E+00 0.000E+00
                                243 S  
                                         8.355E-01 1.000E+00 0.000E+00 0.000E+00
                                244 S  
                                         2.463E-01 1.000E+00 0.000E+00 0.000E+00
                         245-   247 P  
                                         1.355E+01 0.000E+00 4.063E-02 0.000E+00
                                         2.918E+00 0.000E+00 2.209E-01 0.000E+00
                                         7.983E-01 0.000E+00 5.186E-01 0.000E+00
                         248-   250 P  
                                         2.190E-01 0.000E+00 1.000E+00 0.000E+00
                         251-   255 D  
                                         8.000E-01 0.000E+00 0.000E+00 1.000E+00
  18 N   10.730  -2.719  13.054
  19 N  -10.730   3.920   3.110
  20 N   -0.357  -3.920 -13.054
  21 N   -0.357  -2.719   3.110
  22 N  -10.730   2.719 -13.054
  23 N   10.730  -3.920  -3.110
  24 N    0.357   3.920  13.054
  25 C   -3.964   3.053  -9.773
                                361 S  
                                         3.624E+03 1.634E-03 0.000E+00 0.000E+00
                                         5.440E+02 1.252E-02 0.000E+00 0.000E+00
                                         1.237E+02 6.211E-02 0.000E+00 0.000E+00
                                         3.476E+01 2.182E-01 0.000E+00 0.000E+00
                                         1.093E+01 4.980E-01 0.000E+00 0.000E+00
                                362 S  
                                         3.574E+00 1.000E+00 0.000E+00 0.000E+00
                                363 S  
                                         5.748E-01 1.000E+00 0.000E+00 0.000E+00
                                364 S  
                                         1.730E-01 1.000E+00 0.000E+00 0.000E+00
                         365-   367 P  
                                         9.443E+00 0.000E+00 3.790E-02 0.000E+00
                                         2.002E+00 0.000E+00 2.082E-01 0.000E+00
                                         5.463E-01 0.000E+00 5.047E-01 0.000E+00
                         368-   370 P  
                                         1.520E-01 0.000E+00 1.000E+00 0.000E+00
                         371-   375 D  
                                         8.000E-01 0.000E+00 0.000E+00 1.000E+00
  26 C   -7.124  -3.053   6.391
  27 C    7.124   3.585   9.773
  28 C    3.964  -3.585  -6.391
  29 C    3.964  -3.053   9.773
  30 C    7.124   3.053  -6.391
  31 C   -7.124  -3.585  -9.773
  32 C   -3.964   3.585   6.391
  33 C   -1.238   2.785  -5.236
  34 C   -9.849  -2.785  10.928
  35 C    9.849   3.853   5.236
  36 C    1.238  -3.853 -10.928
  37 C    1.238  -2.785   5.236
  38 C    9.849   2.785 -10.928
  39 C   -9.849  -3.853  -5.236
  40 C   -1.238   3.853  10.928
  41 C   -3.648   3.841  -5.289
  42 C   -7.440  -3.841  10.875
  43 C    7.440   2.798   5.289
  44 C    3.648  -2.798 -10.875
  45 C    3.648  -3.841   5.289
  46 C    7.440   3.841 -10.875
  47 C   -7.440  -2.798  -5.289
  48 C   -3.648   2.798  10.875
  49 C   -4.992   3.968  -7.537
  50 C   -6.096  -3.968   8.628
  51 C    6.096   2.670   7.537
  52 C    4.992  -2.670  -8.628
  53 C    4.992  -3.968   7.537
  54 C    6.096   3.968  -8.628
  55 C   -6.096  -2.670  -7.537
  56 C   -4.992   2.670   8.628
  57 C    2.053   2.933   1.076
  58 C    9.034  -2.933 -15.088
  59 C   -9.034   3.705  -1.076
  60 C   -2.053  -3.705  15.088
  61 C   -2.053  -2.933  -1.076
  62 C   -9.034   2.933  15.088
  63 C    9.034  -3.705   1.076
  64 C    2.053   3.705 -15.088
  65 C   -1.599   1.909  -9.698
  66 C   -9.488  -1.909   6.466
  67 C    9.488   4.729   9.698
  68 C    1.599  -4.729  -6.466
  69 C    1.599  -1.909   9.698
  70 C    9.488   1.909  -6.466
  71 C   -9.488  -4.729  -9.698
  72 C   -1.599   4.729   6.466
  73 C   -0.186   3.112  -0.668
  74 C  -10.901  -3.112  15.497
  75 C   10.901   3.526   0.668
  76 C    0.186  -3.526 -15.497
  77 C    0.186  -3.112   0.668
  78 C   10.901   3.112 -15.497
  79 C  -10.901  -3.526  -0.668
  80 C   -0.186   3.526  15.497
  81 C   -0.258   1.787  -7.464
  82 C  -10.829  -1.787   8.700
  83 C   10.829   4.851   7.464
  84 C    0.258  -4.851  -8.700
  85 C    0.258  -1.787   7.464
  86 C   10.829   1.787  -8.700
  87 C  -10.829  -4.851  -7.464
  88 C   -0.258   4.851   8.700
  89 H   -4.141   3.061 -13.401
                               1321 S  
                                         1.874E+01 1.968E-02 0.000E+00 0.000E+00
                                         2.826E+00 1.380E-01 0.000E+00 0.000E+00
                                         6.401E-01 4.783E-01 0.000E+00 0.000E+00
                               1322 S  
                                         1.756E-01 1.000E+00 0.000E+00 0.000E+00
  90 H   -6.946  -3.061   2.763
  91 H    6.946   3.578  13.401
  92 H    4.141  -3.578  -2.763
  93 H    4.141  -3.061  13.401
  94 H    6.946   3.061  -2.763
  95 H   -6.946  -3.578 -13.401
  96 H   -4.141   3.578   2.763
  97 H    2.216   2.478  -3.527
  98 H    8.871  -2.478  12.637
  99 H   -8.871   4.160   3.527
 100 H   -2.216  -4.160 -12.637
 101 H   -2.216  -2.478   3.527
 102 H   -8.871   2.478 -12.637
 103 H    8.871  -4.160  -3.527
 104 H    2.216   4.160  12.637
 105 H   -4.487   4.624  -3.610
 106 H   -6.600  -4.624  12.554
 107 H    6.600   2.014   3.610
 108 H    4.487  -2.014 -12.554
 109 H    4.487  -4.624   3.610
 110 H    6.600   4.624 -12.554
 111 H   -6.600  -2.014  -3.610
 112 H   -4.487   2.014  12.554
 113 H   -6.843   4.837  -7.542
 114 H   -4.245  -4.837   8.622
 115 H    4.245   1.802   7.542
 116 H    6.843  -1.802  -8.622
 117 H    6.843  -4.837   7.542
 118 H    4.245   4.837  -8.622
 119 H   -4.245  -1.802  -7.542
 120 H   -6.843   1.802   8.622
 121 H    2.949   4.783   1.236
 122 H    8.138  -4.783 -14.928
 123 H   -8.138   1.856  -1.236
 124 H   -2.949  -1.856  14.928
 125 H   -2.949  -4.783  -1.236
 126 H   -8.138   4.783  14.928
 127 H    8.138  -1.856   1.236
 128 H    2.949   1.856 -14.928
 129 H    3.470   1.606   0.401
 130 H    7.618  -1.606 -15.763
 131 H   -7.618   5.033  -0.401
 132 H   -3.470  -5.033  15.763
 133 H   -3.470  -1.606  -0.401
 134 H   -7.618   1.606  15.763
 135 H    7.618  -5.033   0.401
 136 H    3.470   5.033 -15.763
 137 H    1.455   2.353   2.953
 138 H    9.633  -2.353 -13.211
 139 H   -9.633   4.285  -2.953
 140 H   -1.455  -4.285  13.211
 141 H   -1.455  -2.353  -2.953
 142 H   -9.633   2.353  13.211
 143 H    9.633  -4.285   2.953
 144 H    1.455   4.285 -13.211
 145 H   -0.798   1.080 -11.383
 146 H  -10.290  -1.080   4.781
 147 H   10.290   5.558  11.383
 148 H    0.798  -5.558  -4.781
 149 H    0.798  -1.080  11.383
 150 H   10.290   1.080  -4.781
 151 H  -10.290  -5.558 -11.383
 152 H   -0.798   5.558   4.781
 153 H    1.585   0.900  -7.475
 154 H    9.502  -0.900   8.689
 155 H   -9.502   5.738   7.475
 156 H   -1.585  -5.738  -8.689
 157 H   -1.585  -0.900   7.475
 158 H   -9.502   0.900  -8.689
 159 H    9.502  -5.738  -7.475
 160 H    1.585   5.738   8.689

 *******************************************************************************
 FINISHED BASIS SET HANDLING 
 *******************************************************************************

 INFORMATION **** SET_MPP **** PCRYSTAL CALCULATION
 INFORMATION **** READM2 **** NEW DEFAULT: FOCK/KS MATRIX MIXING SET TO 30 %
 INFORMATION **** READM2 **** NEW DEFAULT: FULL DIRECT SCF MODE
 INFORMATION **** READM2 **** NEW DEFAULT: COULOMB BIPOLAR BUFFER SET TO 32 Mb
 INFORMATION **** READM2 **** NEW DEFAULT: EXCHANGE BIPOLAR BUFFER SET TO 32 Mb

 *******************************************************************************
 NEW DEFAULT: DFT INTEGRATION GRID INCREASED TO XLGRID
 NEW DEFAULT: DIIS ACCELERATOR ACTIVE
 USE KEYWORD NODIIS TO TURN IT OFF
 *******************************************************************************

 INFORMATION **** RDDFTP **** PBEh-3c calculation
 INFORMATION **** RDDFTP **** PBEh hybrid functional combined with D3 and gCP

PLEASE CITE:
(1) PBEh-3c Reference
 S. Grimme, J. G. Brandenburg, C. Bannwarth, and A. Hansen, 
 J. Chem. Phys. 143, 054107 (2015)
(2) DFT-D3 Reference
 S. Grimme, J. Antony, S. Ehrlich, and H. Krieg, J. Chem. Phys. 132, 154104 (2010)
(3) gCP Reference
 H. Kruse and S. Grimme J. Chem. Phys, 136, 154101 (2012)
 J. G. Brandenburg, M. Alessio, B. Civalleri, M. F. Peintinger
 T. Bredow, and S. Grimme, J. Phys. Chem. A, 117, 9282 (2013) 

 WARNING **** RDDFTP **** PBEh-3c has to be combined with def2-mSVP basis set
 WARNING **** RDDFTP **** Note: Harmonic frequencies are scaled by 0.95
 WARNING **** RDDFTP **** as recommended in original publication
 INFORMATION **** TOLDEE **** SCF TOL ON TOTAL ENERGY SET TO           9
 INFORMATION **** TOLINTEG **** COULOMB AND EXCHANGE SERIES TOLERANCES MODIFIED
 INFORMATION **** MAXCYCLE **** MAX NUMBER OF SCF CYCLES SET TO          30
 WARNING **** READM2 **** PROBABLE LOSS IN FREQCALC ACCURACY; SCF TOL LT          10
 *******************************************************************************
 N. OF ATOMS PER CELL       160  COULOMB OVERLAP TOL         (T1) 10**   -8
 NUMBER OF SHELLS           760  COULOMB PENETRATION TOL     (T2) 10**   -8
 NUMBER OF AO              1464  EXCHANGE OVERLAP TOL        (T3) 10**   -8
 N. OF ELECTRONS PER CELL   640  EXCHANGE PSEUDO OVP (F(G))  (T4) 10**   -8
 CORE ELECTRONS PER CELL    176  EXCHANGE PSEUDO OVP (P(G))  (T5) 10**  -24
 N. OF SYMMETRY OPERATORS     8  POLE ORDER IN MONO ZONE                  4
 *******************************************************************************
 TYPE OF CALCULATION :  RESTRICTED CLOSED SHELL
 KOHN-SHAM HAMILTONIAN

 (EXCHANGE)[CORRELATION] FUNCTIONAL:(PBEh-3c)[PBEh-3c]


 HYBRID EXCHANGE - PERCENTAGE OF FOCK EXCHANGE    42.0000

 CAPPA:IS1  4;IS2  4;IS3  2; K PTS MONK NET  18; SYMMOPS:K SPACE   8;G SPACE   8

 *******************************************************************************
 MAX NUMBER OF SCF CYCLES      30  CONVERGENCE ON DELTAP        10**-19
 WEIGHT OF F(I) IN F(I+1)      50% CONVERGENCE ON ENERGY        10**- 9
 SHRINK. FACT.(MONKH.)    4  4  2  NUMBER OF K POINTS IN THE IBZ     18
 SHRINKING FACTOR(GILAT NET)    4  NUMBER OF K POINTS(GILAT NET)     18
 *******************************************************************************
 *** K POINTS COORDINATES (OBLIQUE COORDINATES IN UNITS OF IS =  4)
   1-R(  0  0  0)   2-C(  1  0  0)   3-R(  2  0  0)   4-C(  0  1  0)
   5-C(  1  1  0)   6-C(  2  1  0)   7-R(  0  2  0)   8-C(  1  2  0)
   9-R(  2  2  0)  10-R(  0  0  1)  11-C(  1  0  1)  12-R(  2  0  1)
  13-C(  0  1  1)  14-C(  1  1  1)  15-C(  2  1  1)  16-R(  0  2  1)
  17-C(  1  2  1)  18-R(  2  2  1)

 DIRECT LATTICE VECTORS COMPON. (A.U.)     RECIP. LATTICE VECTORS COMPON. (A.U.) 
        X            Y            Z              X            Y            Z
   22.1750860    0.0000000    0.0000000      0.2833443    0.0000000    0.0000000
    0.0000000   13.2766989    0.0000000      0.0000000    0.4732491    0.0000000
    0.0000000    0.0000000   32.3283380      0.0000000    0.0000000    0.1943553

 DISK SPACE FOR EIGENVECTORS (FTN 10)    60012288 REALS

 SYMMETRY ADAPTION OF THE BLOCH FUNCTIONS ENABLED
 TTTTTTTTTTTTTTTTTTTTTTTTTTTTTT gordsh1     TELAPSE        4.36 TCPU        1.79

 MATRIX SIZE: P(G) 4880072, F(G)  459048, P(G) IRR  309726, F(G) IRR   58197
 MAX G-VECTOR INDEX FOR 1- AND 2-ELECTRON INTEGRALS  83

 TTTTTTTTTTTTTTTTTTTTTTTTTTTTTT INPUT       TELAPSE        4.49 TCPU        1.91

 NEIGHBORS OF THE NON-EQUIVALENT ATOMS

 N = NUMBER OF NEIGHBORS AT DISTANCE R
    ATOM  N     R/ANG      R/AU   NEIGHBORS (ATOM LABELS AND CELL INDICES)
   1 O    1     0.9823     1.8562   89 H    0 0 0
   1 O    1     1.3486     2.5486   25 C    0 0 0
   1 O    1     1.9842     3.7497  102 H    0 0 0
   1 O    1     2.3668     4.4726   49 C    0 0 0
   1 O    1     2.3928     4.5218   65 C    0 0 0
   1 O    1     2.6076     4.9277  113 H    0 0 0

   9 O    1     1.2320     2.3282   73 C    0 0 0
   9 O    1     1.7091     3.2298   96 H    0 0 0
   9 O    1     2.2625     4.2755   17 N    0 0 0
   9 O    1     2.3290     4.4012  105 H    0 0 0
   9 O    1     2.4037     4.5423   57 C    0 0 0
   9 O    1     2.5980     4.9095  137 H    0 0 0

  17 N    1     1.0162     1.9203   97 H    0 0 0
  17 N    1     1.3406     2.5334   73 C    0 0 0
  17 N    1     1.4068     2.6585   33 C    0 0 0
  17 N    1     2.2625     4.2755    9 O    0 0 0
  17 N    1     2.3783     4.4943   81 C    0 0 0
  17 N    1     2.3932     4.5225   57 C    0 0 0

  25 C    1     1.3486     2.5486    1 O    0 0 0
  25 C    1     1.3896     2.6259   49 C    0 0 0
  25 C    1     1.3907     2.6281   65 C    0 0 0
  25 C    1     1.9220     3.6321   89 H    0 0 0
  25 C    1     2.1459     4.0552  113 H    0 0 0
  25 C    1     2.1501     4.0631  145 H    0 0 0

  33 C    1     1.3921     2.6307   81 C    0 0 0
  33 C    1     1.3924     2.6312   41 C    0 0 0
  33 C    1     1.4068     2.6585   17 N    0 0 0
  33 C    1     2.0460     3.8663   97 H    0 0 0
  33 C    1     2.1523     4.0672  153 H    0 0 0
  33 C    1     2.1548     4.0719  105 H    0 0 0

  41 C    1     1.0765     2.0343  105 H    0 0 0
  41 C    1     1.3873     2.6216   49 C    0 0 0
  41 C    1     1.3924     2.6312   33 C    0 0 0
  41 C    1     2.1348     4.0341  113 H    0 0 0
  41 C    1     2.3922     4.5205   81 C    0 0 0
  41 C    1     2.4148     4.5633   25 C    0 0 0

  49 C    1     1.0819     2.0445  113 H    0 0 0
  49 C    1     1.3873     2.6216   41 C    0 0 0
  49 C    1     1.3896     2.6259   25 C    0 0 0
  49 C    1     2.1236     4.0130  105 H    0 0 0
  49 C    1     2.3668     4.4726    1 O    0 0 0
  49 C    1     2.3914     4.5192   65 C    0 0 0

  57 C    1     1.0865     2.0533  137 H    0 0 0
  57 C    1     1.0876     2.0553  129 H    0 0 0
  57 C    1     1.0909     2.0615  121 H    0 0 0
  57 C    1     1.5051     2.8443   73 C    0 0 0
  57 C    1     2.3932     4.5225   17 N    0 0 0
  57 C    1     2.4037     4.5423    9 O    0 0 0

  65 C    1     1.0804     2.0417  145 H    0 0 0
  65 C    1     1.3804     2.6085   81 C    0 0 0
  65 C    1     1.3907     2.6281   25 C    0 0 0
  65 C    1     2.1234     4.0126  153 H    0 0 0
  65 C    1     2.3914     4.5192   49 C    0 0 0
  65 C    1     2.3928     4.5218    1 O    0 0 0

  73 C    1     1.2320     2.3282    9 O    0 0 0
  73 C    1     1.3406     2.5334   17 N    0 0 0
  73 C    1     1.5051     2.8443   57 C    0 0 0
  73 C    1     2.0048     3.7885   97 H    0 0 0
  73 C    1     2.1329     4.0305  121 H    0 0 0
  73 C    1     2.1417     4.0471  137 H    0 0 0

  81 C    1     1.0828     2.0461  153 H    0 0 0
  81 C    1     1.3804     2.6085   65 C    0 0 0
  81 C    1     1.3921     2.6307   33 C    0 0 0
  81 C    1     2.1268     4.0190  145 H    0 0 0
  81 C    1     2.3783     4.4943   17 N    0 0 0
  81 C    1     2.3922     4.5205   41 C    0 0 0

  89 H    1     0.9823     1.8562    1 O    0 0 0
  89 H    1     1.7091     3.2298   16 O    0 0 0
  89 H    1     1.9220     3.6321   25 C    0 0 0
  89 H    1     2.3169     4.3784  145 H    0 0 0
  89 H    1     2.4536     4.6366   65 C    0 0 0
  89 H    1     2.5541     4.8265  102 H    0 0 0

  97 H    1     1.0162     1.9203   17 N    0 0 0
  97 H    1     1.9842     3.7497    6 O    0 0 0
  97 H    1     2.0048     3.7885   73 C    0 0 0
  97 H    1     2.0460     3.8663   33 C    0 0 0
  97 H    1     2.2304     4.2149  129 H    0 0 0
  97 H    1     2.2745     4.2982  153 H    0 0 0

 105 H    1     1.0765     2.0343   41 C    0 0 0
 105 H    1     2.1236     4.0130   49 C    0 0 0
 105 H    1     2.1548     4.0719   33 C    0 0 0
 105 H    1     2.3290     4.4012    9 O    0 0 0
 105 H    1     2.3820     4.5014  131 H    0 0 0
 105 H    1     2.4283     4.5888  113 H    0 0 0

 113 H    1     1.0819     2.0445   49 C    0 0 0
 113 H    1     2.1348     4.0341   41 C    0 0 0
 113 H    1     2.1459     4.0552   25 C    0 0 0
 113 H    1     2.4283     4.5888  105 H    0 0 0
 113 H    1     2.5863     4.8874  158 H    0 0 0
 113 H    1     2.6076     4.9277    1 O    0 0 0

 121 H    1     1.0909     2.0615   57 C    0 0 0
 121 H    1     1.7600     3.3259  129 H    0 0 0
 121 H    1     1.7619     3.3294  137 H    0 0 0
 121 H    1     2.1329     4.0305   73 C    0 0 0
 121 H    1     2.5365     4.7932  109 H    0 1 0
 121 H    1     2.6913     5.0858   13 O    0 1 0

 129 H    1     1.0876     2.0553   57 C    0 0 0
 129 H    1     1.7600     3.3259  121 H    0 0 0
 129 H    1     1.7655     3.3363  137 H    0 0 0
 129 H    1     2.1678     4.0965   73 C    0 0 0
 129 H    1     2.2304     4.2149   97 H    0 0 0
 129 H    1     2.3820     4.5014  107 H    0 0 0

 137 H    1     1.0865     2.0533   57 C    0 0 0
 137 H    1     1.7619     3.3294  121 H    0 0 0
 137 H    1     1.7655     3.3363  129 H    0 0 0
 137 H    1     2.1417     4.0471   73 C    0 0 0
[...]
Note: The following floating-point exceptions are signalling: IEEE_UNDERFLOW_FLAG IEEE_DENORMAL
Note: The following floating-point exceptions are signalling: IEEE_UNDERFLOW_FLAG IEEE_DENORMAL
Note: The following floating-point exceptions are signalling: IEEE_UNDERFLOW_FLAG IEEE_DENORMAL
Note: The following floating-point exceptions are signalling: IEEE_UNDERFLOW_FLAG IEEE_DENORMAL
Note: The following floating-point exceptions are signalling: IEEE_UNDERFLOW_FLAG IEEE_DENORMAL
Note: The following floating-point exceptions are signalling: IEEE_UNDERFLOW_FLAG IEEE_DENORMAL
Note: The following floating-point exceptions are signalling: IEEE_UNDERFLOW_FLAG IEEE_DENORMAL
Note: The following floating-point exceptions are signalling: IEEE_UNDERFLOW_FLAG IEEE_DENORMAL
Note: The following floating-point exceptions are signalling: IEEE_UNDERFLOW_FLAG IEEE_DENORMAL
Note: The following floating-point exceptions are signalling: IEEE_UNDERFLOW_FLAG IEEE_DENORMAL
Note: The following floating-point exceptions are signalling: IEEE_UNDERFLOW_FLAG IEEE_DENORMAL
Note: The following floating-point exceptions are signalling: IEEE_UNDERFLOW_FLAG IEEE_DENORMAL
Note: The following floating-point exceptions are signalling: IEEE_UNDERFLOW_FLAG IEEE_DENORMAL
Note: The following floating-point exceptions are signalling: IEEE_UNDERFLOW_FLAG IEEE_DENORMAL
Note: The following floating-point exceptions are signalling: IEEE_UNDERFLOW_FLAG IEEE_DENORMAL
Note: The following floating-point exceptions are signalling: IEEE_UNDERFLOW_FLAG IEEE_DENORMAL
Note: The following floating-point exceptions are signalling: IEEE_UNDERFLOW_FLAG IEEE_DENORMAL
Note: The following floating-point exceptions are signalling: IEEE_UNDERFLOW_FLAG IEEE_DENORMAL
Note: The following floating-point exceptions are signalling: IEEE_UNDERFLOW_FLAG IEEE_DENORMAL
Note: The following floating-point exceptions are signalling: IEEE_UNDERFLOW_FLAG IEEE_DENORMAL
Note: The following floating-point exceptions are signalling: IEEE_UNDERFLOW_FLAG IEEE_DENORMAL
Note: The following floating-point exceptions are signalling: IEEE_UNDERFLOW_FLAG IEEE_DENORMAL
Note: The following floating-point exceptions are signalling: IEEE_UNDERFLOW_FLAG IEEE_DENORMAL
Note: The following floating-point exceptions are signalling: IEEE_UNDERFLOW_FLAG IEEE_DENORMAL
Note: The following floating-point exceptions are signalling: IEEE_UNDERFLOW_FLAG IEEE_DENORMAL
Note: The following floating-point exceptions are signalling: IEEE_UNDERFLOW_FLAG IEEE_DENORMAL
Note: The following floating-point exceptions are signalling: IEEE_UNDERFLOW_FLAG IEEE_DENORMAL
Note: The following floating-point exceptions are signalling: IEEE_UNDERFLOW_FLAG IEEE_DENORMAL
Note: The following floating-point exceptions are signalling: IEEE_UNDERFLOW_FLAG IEEE_DENORMAL
Note: The following floating-point exceptions are signalling: IEEE_UNDERFLOW_FLAG IEEE_DENORMAL
Note: The following floating-point exceptions are signalling: IEEE_UNDERFLOW_FLAG IEEE_DENORMAL
Note: The following floating-point exceptions are signalling: IEEE_UNDERFLOW_FLAG IEEE_DENORMAL
Note: The following floating-point exceptions are signalling: IEEE_UNDERFLOW_FLAG IEEE_DENORMAL
Note: The following floating-point exceptions are signalling: IEEE_UNDERFLOW_FLAG IEEE_DENORMAL
Note: The following floating-point exceptions are signalling: IEEE_UNDERFLOW_FLAG IEEE_DENORMAL
Note: The following floating-point exceptions are signalling: IEEE_UNDERFLOW_FLAG IEEE_DENORMAL
Note: The following floating-point exceptions are signalling: IEEE_UNDERFLOW_FLAG IEEE_DENORMAL
Note: The following floating-point exceptions are signalling: IEEE_UNDERFLOW_FLAG IEEE_DENORMAL
Note: The following floating-point exceptions are signalling: IEEE_UNDERFLOW_FLAG IEEE_DENORMAL
Note: The following floating-point exceptions are signalling: IEEE_UNDERFLOW_FLAG IEEE_DENORMAL
Note: The following floating-point exceptions are signalling: IEEE_UNDERFLOW_FLAG IEEE_DENORMAL
Note: The following floating-point exceptions are signalling: IEEE_UNDERFLOW_FLAG IEEE_DENORMAL
Note: The following floating-point exceptions are signalling: IEEE_UNDERFLOW_FLAG IEEE_DENORMAL
Note: The following floating-point exceptions are signalling: IEEE_UNDERFLOW_FLAG IEEE_DENORMAL
Note: The following floating-point exceptions are signalling: IEEE_UNDERFLOW_FLAG IEEE_DENORMAL
Note: The following floating-point exceptions are signalling: IEEE_UNDERFLOW_FLAG IEEE_DENORMAL
Note: The following floating-point exceptions are signalling: IEEE_UNDERFLOW_FLAG IEEE_DENORMAL
Note: The following floating-point exceptions are signalling: IEEE_UNDERFLOW_FLAG IEEE_DENORMAL
Note: The following floating-point exceptions are signalling: IEEE_UNDERFLOW_FLAG IEEE_DENORMAL
Note: The following floating-point exceptions are signalling: IEEE_UNDERFLOW_FLAG IEEE_DENORMAL
Note: The following floating-point exceptions are signalling: IEEE_UNDERFLOW_FLAG IEEE_DENORMAL
Note: The following floating-point exceptions are signalling: IEEE_UNDERFLOW_FLAG IEEE_DENORMAL
Note: The following floating-point exceptions are signalling: IEEE_UNDERFLOW_FLAG IEEE_DENORMAL
Note: The following floating-point exceptions are signalling: IEEE_UNDERFLOW_FLAG IEEE_DENORMAL
Note: The following floating-point exceptions are signalling: IEEE_UNDERFLOW_FLAG IEEE_DENORMAL
Note: The following floating-point exceptions are signalling: IEEE_UNDERFLOW_FLAG IEEE_DENORMAL
Note: The following floating-point exceptions are signalling: IEEE_UNDERFLOW_FLAG IEEE_DENORMAL
Note: The following floating-point exceptions are signalling: IEEE_UNDERFLOW_FLAG IEEE_DENORMAL
Note: The following floating-point exceptions are signalling: IEEE_UNDERFLOW_FLAG IEEE_DENORMAL
Note: The following floating-point exceptions are signalling: IEEE_UNDERFLOW_FLAG IEEE_DENORMAL
Note: The following floating-point exceptions are signalling: IEEE_UNDERFLOW_FLAG IEEE_DENORMAL
Note: The following floating-point exceptions are signalling: IEEE_UNDERFLOW_FLAG IEEE_DENORMAL
Note: The following floating-point exceptions are signalling: IEEE_UNDERFLOW_FLAG IEEE_DENORMAL
Note: The following floating-point exceptions are signalling: IEEE_UNDERFLOW_FLAG IEEE_DENORMAL
Note: The following floating-point exceptions are signalling: IEEE_UNDERFLOW_FLAG IEEE_DENORMAL
Note: The following floating-point exceptions are signalling: IEEE_UNDERFLOW_FLAG IEEE_DENORMAL
Note: The following floating-point exceptions are signalling: IEEE_UNDERFLOW_FLAG IEEE_DENORMAL
Note: The following floating-point exceptions are signalling: IEEE_UNDERFLOW_FLAG IEEE_DENORMAL
Note: The following floating-point exceptions are signalling: IEEE_UNDERFLOW_FLAG IEEE_DENORMAL
Note: The following floating-point exceptions are signalling: IEEE_UNDERFLOW_FLAG IEEE_DENORMAL
Note: The following floating-point exceptions are signalling: IEEE_UNDERFLOW_FLAG IEEE_DENORMAL
Note: The following floating-point exceptions are signalling: IEEE_UNDERFLOW_FLAG IEEE_DENORMAL
Note: The following floating-point exceptions are signalling: IEEE_UNDERFLOW_FLAG IEEE_DENORMAL
Note: The following floating-point exceptions are signalling: IEEE_UNDERFLOW_FLAG IEEE_DENORMAL
Note: The following floating-point exceptions are signalling: IEEE_UNDERFLOW_FLAG IEEE_DENORMAL
Note: The following floating-point exceptions are signalling: IEEE_UNDERFLOW_FLAG IEEE_DENORMAL
Note: The following floating-point exceptions are signalling: IEEE_UNDERFLOW_FLAG IEEE_DENORMAL
Note: The following floating-point exceptions are signalling: IEEE_UNDERFLOW_FLAG IEEE_DENORMAL
Note: The following floating-point exceptions are signalling: IEEE_UNDERFLOW_FLAG IEEE_DENORMAL
Note: The following floating-point exceptions are signalling: IEEE_UNDERFLOW_FLAG IEEE_DENORMAL
Note: The following floating-point exceptions are signalling: IEEE_UNDERFLOW_FLAG IEEE_DENORMAL
Note: The following floating-point exceptions are signalling: IEEE_UNDERFLOW_FLAG IEEE_DENORMAL
Note: The following floating-point exceptions are signalling: IEEE_UNDERFLOW_FLAG IEEE_DENORMAL
Note: The following floating-point exceptions are signalling: IEEE_UNDERFLOW_FLAG IEEE_DENORMAL
Note: The following floating-point exceptions are signalling: IEEE_UNDERFLOW_FLAG IEEE_DENORMAL
Note: The following floating-point exceptions are signalling: IEEE_UNDERFLOW_FLAG IEEE_DENORMAL
Note: The following floating-point exceptions are signalling: IEEE_UNDERFLOW_FLAG IEEE_DENORMAL
Note: The following floating-point exceptions are signalling: IEEE_UNDERFLOW_FLAG IEEE_DENORMAL
Note: The following floating-point exceptions are signalling: IEEE_UNDERFLOW_FLAG IEEE_DENORMAL
Note: The following floating-point exceptions are signalling: IEEE_UNDERFLOW_FLAG IEEE_DENORMAL
Note: The following floating-point exceptions are signalling: IEEE_UNDERFLOW_FLAG IEEE_DENORMAL
Note: The following floating-point exceptions are signalling: IEEE_UNDERFLOW_FLAG IEEE_DENORMAL
Note: The following floating-point exceptions are signalling: IEEE_UNDERFLOW_FLAG IEEE_DENORMAL
Note: The following floating-point exceptions are signalling: IEEE_UNDERFLOW_FLAG IEEE_DENORMAL
Note: The following floating-point exceptions are signalling: IEEE_UNDERFLOW_FLAG IEEE_DENORMAL
Note: The following floating-point exceptions are signalling: IEEE_UNDERFLOW_FLAG IEEE_DENORMAL
Note: The following floating-point exceptions are signalling: IEEE_UNDERFLOW_FLAG IEEE_DENORMAL
Note: The following floating-point exceptions are signalling: IEEE_UNDERFLOW_FLAG IEEE_DENORMAL
Note: The following floating-point exceptions are signalling: IEEE_UNDERFLOW_FLAG IEEE_DENORMAL
Note: The following floating-point exceptions are signalling: IEEE_UNDERFLOW_FLAG IEEE_DENORMAL
Note: The following floating-point exceptions are signalling: IEEE_UNDERFLOW_FLAG IEEE_DENORMAL
Note: The following floating-point exceptions are signalling: IEEE_UNDERFLOW_FLAG IEEE_DENORMAL
Note: The following floating-point exceptions are signalling: IEEE_UNDERFLOW_FLAG IEEE_DENORMAL
Note: The following floating-point exceptions are signalling: IEEE_UNDERFLOW_FLAG IEEE_DENORMAL
Note: The following floating-point exceptions are signalling: IEEE_UNDERFLOW_FLAG IEEE_DENORMAL
Note: The following floating-point exceptions are signalling: IEEE_UNDERFLOW_FLAG IEEE_DENORMAL
Note: The following floating-point exceptions are signalling: IEEE_UNDERFLOW_FLAG IEEE_DENORMAL
Note: The following floating-point exceptions are signalling: IEEE_UNDERFLOW_FLAG IEEE_DENORMAL
Note: The following floating-point exceptions are signalling: IEEE_UNDERFLOW_FLAG IEEE_DENORMAL
Note: The following floating-point exceptions are signalling: IEEE_UNDERFLOW_FLAG IEEE_DENORMAL
Note: The following floating-point exceptions are signalling: IEEE_UNDERFLOW_FLAG IEEE_DENORMAL
Note: The following floating-point exceptions are signalling: IEEE_UNDERFLOW_FLAG IEEE_DENORMAL
Note: The following floating-point exceptions are signalling: IEEE_UNDERFLOW_FLAG IEEE_DENORMAL
Note: The following floating-point exceptions are signalling: IEEE_UNDERFLOW_FLAG IEEE_DENORMAL
Note: The following floating-point exceptions are signalling: IEEE_UNDERFLOW_FLAG IEEE_DENORMAL
Note: The following floating-point exceptions are signalling: IEEE_UNDERFLOW_FLAG IEEE_DENORMAL
Note: The following floating-point exceptions are signalling: IEEE_UNDERFLOW_FLAG IEEE_DENORMAL
Note: The following floating-point exceptions are signalling: IEEE_UNDERFLOW_FLAG IEEE_DENORMAL
Note: The following floating-point exceptions are signalling: IEEE_UNDERFLOW_FLAG IEEE_DENORMAL
Note: The following floating-point exceptions are signalling: IEEE_UNDERFLOW_FLAG IEEE_DENORMAL
Note: The following floating-point exceptions are signalling: IEEE_UNDERFLOW_FLAG IEEE_DENORMAL
Note: The following floating-point exceptions are signalling: IEEE_UNDERFLOW_FLAG IEEE_DENORMAL
Note: The following floating-point exceptions are signalling: IEEE_UNDERFLOW_FLAG IEEE_DENORMAL
Note: The following floating-point exceptions are signalling: IEEE_UNDERFLOW_FLAG IEEE_DENORMAL
Note: The following floating-point exceptions are signalling: IEEE_UNDERFLOW_FLAG IEEE_DENORMAL
Note: The following floating-point exceptions are signalling: IEEE_UNDERFLOW_FLAG IEEE_DENORMAL
Note: The following floating-point exceptions are signalling: IEEE_UNDERFLOW_FLAG IEEE_DENORMAL
Note: The following floating-point exceptions are signalling: IEEE_UNDERFLOW_FLAG IEEE_DENORMAL
Note: The following floating-point exceptions are signalling: IEEE_UNDERFLOW_FLAG IEEE_DENORMAL
Note: The following floating-point exceptions are signalling: IEEE_UNDERFLOW_FLAG IEEE_DENORMAL
Note: The following floating-point exceptions are signalling: IEEE_UNDERFLOW_FLAG IEEE_DENORMAL
Note: The following floating-point exceptions are signalling: IEEE_UNDERFLOW_FLAG IEEE_DENORMAL
Note: The following floating-point exceptions are signalling: IEEE_UNDERFLOW_FLAG IEEE_DENORMAL
Note: The following floating-point exceptions are signalling: IEEE_UNDERFLOW_FLAG IEEE_DENORMAL
Note: The following floating-point exceptions are signalling: IEEE_UNDERFLOW_FLAG IEEE_DENORMAL
Note: The following floating-point exceptions are signalling: IEEE_UNDERFLOW_FLAG IEEE_DENORMAL
Note: The following floating-point exceptions are signalling: IEEE_UNDERFLOW_FLAG IEEE_DENORMAL
Note: The following floating-point exceptions are signalling: IEEE_UNDERFLOW_FLAG IEEE_DENORMAL
Note: The following floating-point exceptions are signalling: IEEE_UNDERFLOW_FLAG IEEE_DENORMAL
Note: The following floating-point exceptions are signalling: IEEE_UNDERFLOW_FLAG IEEE_DENORMAL
Note: The following floating-point exceptions are signalling: IEEE_UNDERFLOW_FLAG IEEE_DENORMAL
Note: The following floating-point exceptions are signalling: IEEE_UNDERFLOW_FLAG IEEE_DENORMAL
Note: The following floating-point exceptions are signalling: IEEE_UNDERFLOW_FLAG IEEE_DENORMAL
Note: The following floating-point exceptions are signalling: IEEE_UNDERFLOW_FLAG IEEE_DENORMAL
Note: The following floating-point exceptions are signalling: IEEE_UNDERFLOW_FLAG IEEE_DENORMAL
Note: The following floating-point exceptions are signalling: IEEE_UNDERFLOW_FLAG IEEE_DENORMAL
Note: The following floating-point exceptions are signalling: IEEE_UNDERFLOW_FLAG IEEE_DENORMAL
Note: The following floating-point exceptions are signalling: IEEE_UNDERFLOW_FLAG IEEE_DENORMAL
Note: The following floating-point exceptions are signalling: IEEE_UNDERFLOW_FLAG IEEE_DENORMAL
Note: The following floating-point exceptions are signalling: IEEE_UNDERFLOW_FLAG IEEE_DENORMAL
Note: The following floating-point exceptions are signalling: IEEE_UNDERFLOW_FLAG IEEE_DENORMAL
Note: The following floating-point exceptions are signalling: IEEE_UNDERFLOW_FLAG IEEE_DENORMAL
Note: The following floating-point exceptions are signalling: IEEE_UNDERFLOW_FLAG IEEE_DENORMAL
Note: The following floating-point exceptions are signalling: IEEE_UNDERFLOW_FLAG IEEE_DENORMAL
Note: The following floating-point exceptions are signalling: IEEE_UNDERFLOW_FLAG IEEE_DENORMAL
Note: The following floating-point exceptions are signalling: IEEE_UNDERFLOW_FLAG IEEE_DENORMAL
Note: The following floating-point exceptions are signalling: IEEE_UNDERFLOW_FLAG IEEE_DENORMAL
Note: The following floating-point exceptions are signalling: IEEE_UNDERFLOW_FLAG IEEE_DENORMAL
Note: The following floating-point exceptions are signalling: IEEE_UNDERFLOW_FLAG IEEE_DENORMAL
Note: The following floating-point exceptions are signalling: IEEE_UNDERFLOW_FLAG IEEE_DENORMAL
Note: The following floating-point exceptions are signalling: IEEE_UNDERFLOW_FLAG IEEE_DENORMAL
Note: The following floating-point exceptions are signalling: IEEE_UNDERFLOW_FLAG IEEE_DENORMAL
Note: The following floating-point exceptions are signalling: IEEE_UNDERFLOW_FLAG IEEE_DENORMAL
Note: The following floating-point exceptions are signalling: IEEE_UNDERFLOW_FLAG IEEE_DENORMAL
Note: The following floating-point exceptions are signalling: IEEE_UNDERFLOW_FLAG IEEE_DENORMAL
Note: The following floating-point exceptions are signalling: IEEE_UNDERFLOW_FLAG IEEE_DENORMAL
Note: The following floating-point exceptions are signalling: IEEE_UNDERFLOW_FLAG IEEE_DENORMAL
Note: The following floating-point exceptions are signalling: IEEE_UNDERFLOW_FLAG IEEE_DENORMAL
Note: The following floating-point exceptions are signalling: IEEE_UNDERFLOW_FLAG IEEE_DENORMAL
Note: The following floating-point exceptions are signalling: IEEE_UNDERFLOW_FLAG IEEE_DENORMAL
Note: The following floating-point exceptions are signalling: IEEE_UNDERFLOW_FLAG IEEE_DENORMAL
Note: The following floating-point exceptions are signalling: IEEE_UNDERFLOW_FLAG IEEE_DENORMAL
Note: The following floating-point exceptions are signalling: IEEE_UNDERFLOW_FLAG IEEE_DENORMAL
Note: The following floating-point exceptions are signalling: IEEE_UNDERFLOW_FLAG IEEE_DENORMAL
Note: The following floating-point exceptions are signalling: IEEE_UNDERFLOW_FLAG IEEE_DENORMAL
Note: The following floating-point exceptions are signalling: IEEE_UNDERFLOW_FLAG IEEE_DENORMAL
Note: The following floating-point exceptions are signalling: IEEE_UNDERFLOW_FLAG IEEE_DENORMAL
Note: The following floating-point exceptions are signalling: IEEE_UNDERFLOW_FLAG IEEE_DENORMAL
Note: The following floating-point exceptions are signalling: IEEE_UNDERFLOW_FLAG IEEE_DENORMAL
Note: The following floating-point exceptions are signalling: IEEE_UNDERFLOW_FLAG IEEE_DENORMAL
Note: The following floating-point exceptions are signalling: IEEE_UNDERFLOW_FLAG IEEE_DENORMAL
Note: The following floating-point exceptions are signalling: IEEE_UNDERFLOW_FLAG IEEE_DENORMAL
Note: The following floating-point exceptions are signalling: IEEE_UNDERFLOW_FLAG IEEE_DENORMAL
Note: The following floating-point exceptions are signalling: IEEE_UNDERFLOW_FLAG IEEE_DENORMAL
Note: The following floating-point exceptions are signalling: IEEE_UNDERFLOW_FLAG IEEE_DENORMAL
Note: The following floating-point exceptions are signalling: IEEE_UNDERFLOW_FLAG IEEE_DENORMAL
Note: The following floating-point exceptions are signalling: IEEE_UNDERFLOW_FLAG IEEE_DENORMAL
Note: The following floating-point exceptions are signalling: IEEE_UNDERFLOW_FLAG IEEE_DENORMAL
Note: The following floating-point exceptions are signalling: IEEE_UNDERFLOW_FLAG IEEE_DENORMAL
Note: The following floating-point exceptions are signalling: IEEE_UNDERFLOW_FLAG IEEE_DENORMAL
Note: The following floating-point exceptions are signalling: IEEE_UNDERFLOW_FLAG IEEE_DENORMAL
Note: The following floating-point exceptions are signalling: IEEE_UNDERFLOW_FLAG IEEE_DENORMAL
Note: The following floating-point exceptions are signalling: IEEE_UNDERFLOW_FLAG IEEE_DENORMAL
Note: The following floating-point exceptions are signalling: IEEE_UNDERFLOW_FLAG IEEE_DENORMAL
Note: The following floating-point exceptions are signalling: IEEE_UNDERFLOW_FLAG IEEE_DENORMAL
Note: The following floating-point exceptions are signalling: IEEE_UNDERFLOW_FLAG IEEE_DENORMAL
Note: The following floating-point exceptions are signalling: IEEE_UNDERFLOW_FLAG IEEE_DENORMAL
Note: The following floating-point exceptions are signalling: IEEE_UNDERFLOW_FLAG IEEE_DENORMAL
Note: The following floating-point exceptions are signalling: IEEE_UNDERFLOW_FLAG IEEE_DENORMAL
Note: The following floating-point exceptions are signalling: IEEE_UNDERFLOW_FLAG IEEE_DENORMAL
Note: The following floating-point exceptions are signalling: IEEE_UNDERFLOW_FLAG IEEE_DENORMAL
Note: The following floating-point exceptions are signalling: IEEE_UNDERFLOW_FLAG IEEE_DENORMAL
Note: The following floating-point exceptions are signalling: IEEE_UNDERFLOW_FLAG IEEE_DENORMAL
Note: The following floating-point exceptions are signalling: IEEE_UNDERFLOW_FLAG IEEE_DENORMAL
Note: The following floating-point exceptions are signalling: IEEE_UNDERFLOW_FLAG IEEE_DENORMAL
Note: The following floating-point exceptions are signalling: IEEE_UNDERFLOW_FLAG IEEE_DENORMAL
Note: The following floating-point exceptions are signalling: IEEE_UNDERFLOW_FLAG IEEE_DENORMAL
Note: The following floating-point exceptions are signalling: IEEE_UNDERFLOW_FLAG IEEE_DENORMAL
