Lmod has detected the following error: The following module(s) are unknown:
"epcc-job-env"

Please check the spelling or version number. Also try "module spider ..."
It is also possible your cache file is out-of-date; it may help to try:
  $ module --ignore-cache load "epcc-job-env"

Also make sure that all modulefiles written in TCL start with the string
#%Module




Warning: You have enabled access to software packages installed
by external parties on ARCHER2 or those that are not fully-supported.
The ARCHER2 CSE service does not test these packages. The service desk
will make reasonable efforts to assist with questions on the use of
these packages but some issues may not be able to be resolved by the
service and they may direct you to seek help from external parties.


         512 PROCESSORS WORKING

         
 *******************************************************************************
 *                                                                             *
 *                               CRYSTAL17                                     *
 *                      public : 1.0.2 - March 1st, 2018 STFC/Archer2 build    *
 *                       HTTP://WWW.CRYSTAL.UNITO.IT                           *
 *                                                                             *
 *                              MAIN AUTHORS                                   *
 *                                                                             *
 *  R. DOVESI(1,11), V.R. SAUNDERS(2), C. ROETTI(1,11), R. ORLANDO(1,11),      *
 *  C.M. ZICOVICH-WILSON(1,3), F. PASCALE(4), B. CIVALLERI(1,11),              *
 *  K. DOLL(5), N.M. HARRISON(2,6), I.J. BUSH(7), Ph. D'ARCO(8),               *
 *  M. LLUNELL(9), M. CAUSA'(10), Y. NOEL(8), L. MASCHIO(1,11), A. ERBA(1,11)  *
 *  M. RE'RAT(14), S. CASASSA(1,11)                                            *
 *                                                                             *
 *        CONTRIBUTIONS TO THE CODE HAVE ALSO BEEN GIVEN BY                    *
 *                                                                             *
 *  M. FERRABONE(1,11), M. DE LA PIERRE(1,11), M. FERRERO(1,11),               *
 *  J. BAIMA(1,11), E. ALBANESE(1,11), M.F. PEINTINGER(12), R. BAST(13),       *
 *  B. KIRTMAN(15), V. LACIVITA(1,11), R. DEMICHELIS(1,16)                     *
 *  G. BRANDEBURG(17), S. SALUSTRO(1,11), G. SANSONE(1,11)                     *
 *  M.T. RUGGIERO(18)                                                          *
 *                                                                             *
 * (1) THEORETICAL CHEMISTRY GROUP - UNIVERSITA' DI TORINO - TORINO (ITALY)    *
 * (2) COMPUTATIONAL SCIENCE & ENGINEERING DEPARTMENT - STFC DARESBURY (UK)    *
 * (3) UNIVERSIDAD AUTONOMA DEL ESTADO DE MORELOS - CUERNAVACA (MEXICO)        *
 * (4) UNIVERSITE' DE LORRAINE - NANCY (FRANCE)                                *
 * (5) UNIVERSITAET STUTTGART- STUTTGART (GERMANY)                             *
 * (6) IMPERIAL COLLEGE - LONDON (UK)                                          *
 * (7) OXFORD E-RESEARCH CENTRE - OXFORD (UK)                                  *
 * (8) UPMC - SORBONNE UNIVERSITES - PARIS (FRANCE)                            *
 * (9) UNIVERSIDAD DE BARCELONA - BARCELONA (SPAIN)                            *
 *(10) UNIVERSITA' DI NAPOLI "FEDERICO II" - NAPOLI (ITALY)                    *
 *(11) NIS - NANOSTRUCTURED INTERFACES AND SURFACES - TORINO (ITALY)           *
 *(12) MPI FUER CHEMISCHE ENERGIEKONVERSION - MUELHEIM AN DER RUHR (GERMANY)   *
 *(13) UNIVERSITY OF TROMSO - TROMSO (NORWAY)                                  *
 *(14) UNIVERSITE' DE PAU ET DES PAYS DE L'ADOUR - PAU (FRANCE)                *
 *(15) UNIVERSITY OF CALIFORNIA SANTA BARBARA - SANTA BARBARA (USA)            *
 *(16) CURTIN UNIVERSITY - PERTH (AUSTRALIA)                                   *
 *(17) UNIVERSITY COLLEGE LONDON - LONDON (UK)                                 *
 *(18) CAMBRIDGE UNIVERSITY - CAMBRIDGE (UK)                                   *
 *                                                                             *
 *******************************************************************************
 EEEEEEEEEE STARTING  DATE 06 03 2022 TIME 11:51:23.2
 F2 vol stepm1 freq - PBEh-3c                                                    

 GEOMETRY INPUT FROM EXTERNAL FILE (FORTRAN UNIT 34)
 3D - CRYSTAL 

 *******************************************************************************
 LATTICE PARAMETERS  (ANGSTROMS AND DEGREES) - PRIMITIVE CELL
       A          B          C        ALPHA      BETA     GAMMA        VOLUME
   11.77390    7.12394   17.16213    90.00000  90.00000  90.00000   1439.499727

 NUMBER OF IRREDUCIBLE ATOMS IN THE CELL:   20

 CARTESIAN COORDINATES (ANGSTROM) - IRREDUCIBLE ATOMS AND SYMMETRY RELATED

 AT.IRR.  AT  AT.N.          X                   Y                   Z
     1     1     8   -2.790906870540E+00  1.758134187496E+00 -6.345029670954E+00
     1     2     8   -3.096040827490E+00 -1.758134187496E+00  2.236034564786E+00
     1     3     8    3.096040827490E+00  1.803835910520E+00  6.345029670954E+00
     1     4     8    2.790906870540E+00 -1.803835910520E+00 -2.236034564786E+00
     1     5     8    2.790906870540E+00 -1.758134187496E+00  6.345029670954E+00
     1     6     8    3.096040827490E+00  1.758134187496E+00 -2.236034564786E+00
     1     7     8   -3.096040827490E+00 -1.803835910520E+00 -6.345029670954E+00
     1     8     8   -2.790906870540E+00  1.803835910520E+00  2.236034564786E+00
     9     9     8   -1.245128629665E+00  1.946323943874E+00  3.190286493800E-02
     9    10     8   -4.641819068364E+00 -1.946323943874E+00 -8.549161370802E+00
     9    11     8    4.641819068364E+00  1.615646154142E+00 -3.190286493800E-02
     9    12     8    1.245128629665E+00 -1.615646154142E+00  8.549161370802E+00
     9    13     8    1.245128629665E+00 -1.946323943874E+00 -3.190286493800E-02
     9    14     8    4.641819068364E+00  1.946323943874E+00  8.549161370802E+00
     9    15     8   -4.641819068364E+00 -1.615646154142E+00  3.190286493800E-02
     9    16     8   -1.245128629665E+00  1.615646154142E+00 -8.549161370802E+00
    17    17     7    1.801537605860E-01  1.467928766928E+00 -1.660213802914E+00
    17    18     7    5.706793937443E+00 -1.467928766928E+00  6.920850432827E+00
    17    19     7   -5.706793937443E+00  2.094041331088E+00  1.660213802914E+00
    17    20     7   -1.801537605860E-01 -2.094041331088E+00 -6.920850432827E+00
    17    21     7   -1.801537605860E-01 -1.467928766928E+00  1.660213802914E+00
    17    22     7   -5.706793937443E+00  1.467928766928E+00 -6.920850432827E+00
    17    23     7    5.706793937443E+00 -2.094041331088E+00 -1.660213802914E+00
    17    24     7    1.801537605860E-01  2.094041331088E+00  6.920850432827E+00
    25    25     6   -2.097375716905E+00  1.641610152984E+00 -5.194116454496E+00
    25    26     6   -3.789571981124E+00 -1.641610152984E+00  3.386947781244E+00
    25    27     6    3.789571981124E+00  1.920359945032E+00  5.194116454496E+00
    25    28     6    2.097375716905E+00 -1.920359945032E+00 -3.386947781244E+00
    25    29     6    2.097375716905E+00 -1.641610152984E+00  5.194116454496E+00
    25    30     6    3.789571981124E+00  1.641610152984E+00 -3.386947781244E+00
    25    31     6   -3.789571981124E+00 -1.920359945032E+00 -5.194116454496E+00
    25    32     6   -2.097375716905E+00  1.920359945032E+00  3.386947781244E+00
    33    33     6   -6.602242442650E-01  1.504652919552E+00 -2.788568127242E+00
    33    34     6   -5.226723453765E+00 -1.504652919552E+00  5.792496108498E+00
    33    35     6    5.226723453765E+00  2.057317178464E+00  2.788568127242E+00
    33    36     6    6.602242442650E-01 -2.057317178464E+00 -5.792496108498E+00
    33    37     6    6.602242442650E-01 -1.504652919552E+00  2.788568127242E+00
    33    38     6    5.226723453765E+00  1.504652919552E+00 -5.792496108498E+00
    33    39     6   -5.226723453765E+00 -2.057317178464E+00 -2.788568127242E+00
    33    40     6   -6.602242442650E-01  2.057317178464E+00  5.792496108498E+00
    41    41     6   -1.931233052443E+00  2.073008059622E+00 -2.823059924877E+00
    41    42     6   -3.955714645587E+00 -2.073008059622E+00  5.758004310863E+00
    41    43     6    3.955714645587E+00  1.488962038394E+00  2.823059924877E+00
    41    44     6    1.931233052443E+00 -1.488962038394E+00 -5.758004310863E+00
    41    45     6    1.931233052443E+00 -2.073008059622E+00  2.823059924877E+00
    41    46     6    3.955714645587E+00  2.073008059622E+00 -5.758004310863E+00
    41    47     6   -3.955714645587E+00 -1.488962038394E+00 -2.823059924877E+00
    41    48     6   -1.931233052443E+00  1.488962038394E+00  5.758004310863E+00
    49    49     6   -2.639464887544E+00  2.138224116434E+00 -4.014468435508E+00
    49    50     6   -3.247482810486E+00 -2.138224116434E+00  4.566595800233E+00
    49    51     6    3.247482810486E+00  1.423745981582E+00  4.014468435508E+00
    49    52     6    2.639464887544E+00 -1.423745981582E+00 -4.566595800233E+00
    49    53     6    2.639464887544E+00 -2.138224116434E+00  4.014468435508E+00
    49    54     6    3.247482810486E+00  2.138224116434E+00 -4.566595800233E+00
    49    55     6   -3.247482810486E+00 -1.423745981582E+00 -4.014468435508E+00
    49    56     6   -2.639464887544E+00  1.423745981582E+00  4.566595800233E+00
    57    57     6    1.068633674518E+00  1.568846541624E+00  5.608796641350E-01
    57    58     6    4.818314023511E+00 -1.568846541624E+00 -8.020184571605E+00
    57    59     6   -4.818314023511E+00  1.993123556392E+00 -5.608796641350E-01
    57    60     6   -1.068633674518E+00 -1.993123556392E+00  8.020184571605E+00
    57    61     6   -1.068633674518E+00 -1.568846541624E+00 -5.608796641350E-01
    57    62     6   -4.818314023511E+00  1.568846541624E+00  8.020184571605E+00
    57    63     6    4.818314023511E+00 -1.993123556392E+00  5.608796641350E-01
    57    64     6    1.068633674518E+00  1.993123556392E+00 -8.020184571605E+00
    65    65     6   -8.495095914560E-01  1.028481227550E+00 -5.148326955130E+00
    65    66     6   -5.037438106573E+00 -1.028481227550E+00  3.432737280611E+00
    65    67     6    5.037438106573E+00  2.533488870466E+00  5.148326955130E+00
    65    68     6    8.495095914560E-01 -2.533488870466E+00 -3.432737280611E+00
    65    69     6    8.495095914560E-01 -1.028481227550E+00  5.148326955130E+00
    65    70     6    5.037438106573E+00  1.028481227550E+00 -3.432737280611E+00
    65    71     6   -5.037438106573E+00 -2.533488870466E+00 -5.148326955130E+00
    65    72     6   -8.495095914560E-01  2.533488870466E+00  3.432737280611E+00
    73    73     6   -1.125150381180E-01  1.672350090576E+00 -3.671748030600E-01
    73    74     6   -5.774432659912E+00 -1.672350090576E+00  8.213889432681E+00
    73    75     6    5.774432659912E+00  1.889620007440E+00  3.671748030600E-01
    73    76     6    1.125150381180E-01 -1.889620007440E+00 -8.213889432681E+00
    73    77     6    1.125150381180E-01 -1.672350090576E+00  3.671748030600E-01
    73    78     6    5.774432659912E+00  1.672350090576E+00 -8.213889432681E+00
    73    79     6   -5.774432659912E+00 -1.889620007440E+00 -3.671748030600E-01
    73    80     6   -1.125150381180E-01  1.889620007440E+00  8.213889432681E+00
    81    81     6   -1.425164343070E-01  9.664226803920E-01 -3.963731188439E+00
    81    82     6   -5.744431263722E+00 -9.664226803920E-01  4.617333047302E+00
    81    83     6    5.744431263722E+00  2.595547417624E+00  3.963731188439E+00
    81    84     6    1.425164343070E-01 -2.595547417624E+00 -4.617333047302E+00
    81    85     6    1.425164343070E-01 -9.664226803920E-01  3.963731188439E+00
    81    86     6    5.744431263722E+00  9.664226803920E-01 -4.617333047302E+00
    81    87     6   -5.744431263722E+00 -2.595547417624E+00 -3.963731188439E+00
    81    88     6   -1.425164343070E-01  2.595547417624E+00  4.617333047302E+00
    89    89     1   -2.194267501361E+00  1.638255883604E+00 -7.115669790492E+00
    89    90     1   -3.692680196669E+00 -1.638255883604E+00  1.465394445248E+00
    89    91     1    3.692680196669E+00  1.923714214412E+00  7.115669790492E+00
    89    92     1    2.194267501361E+00 -1.923714214412E+00 -1.465394445248E+00
    89    93     1    2.194267501361E+00 -1.638255883604E+00  7.115669790492E+00
    89    94     1    3.692680196669E+00  1.638255883604E+00 -1.465394445248E+00
    89    95     1   -3.692680196669E+00 -1.923714214412E+00 -7.115669790492E+00
    89    96     1   -2.194267501361E+00  1.923714214412E+00  1.465394445248E+00
    97    97     1    1.163762152307E+00  1.335648728830E+00 -1.876449473121E+00
    97    98     1    4.723185545722E+00 -1.335648728830E+00  6.704614762619E+00
    97    99     1   -4.723185545722E+00  2.226321369187E+00  1.876449473121E+00
    97   100     1   -1.163762152307E+00 -2.226321369187E+00 -6.704614762619E+00
    97   101     1   -1.163762152307E+00 -1.335648728830E+00  1.876449473121E+00
    97   102     1   -4.723185545722E+00  1.335648728830E+00 -6.704614762619E+00
    97   103     1    4.723185545722E+00 -2.226321369187E+00 -1.876449473121E+00
    97   104     1    1.163762152307E+00  2.226321369187E+00  6.704614762619E+00
   105   105     1   -2.374462923265E+00  2.495718071471E+00 -1.937306462354E+00
   105   106     1   -3.512484774764E+00 -2.495718071471E+00  6.643757773386E+00
   105   107     1    3.512484774764E+00  1.066252026546E+00  1.937306462354E+00
   105   108     1    2.374462923265E+00 -1.066252026546E+00 -6.643757773386E+00
   105   109     1    2.374462923265E+00 -2.495718071471E+00  1.937306462354E+00
   105   110     1    3.512484774764E+00  2.495718071471E+00 -6.643757773386E+00
   105   111     1   -3.512484774764E+00 -1.066252026546E+00 -1.937306462354E+00
   105   112     1   -2.374462923265E+00  1.066252026546E+00  6.643757773386E+00
   113   113     1   -3.615236138328E+00  2.606148861013E+00 -4.023131361659E+00
   113   114     1   -2.271711559701E+00 -2.606148861013E+00  4.557932874082E+00
   113   115     1    2.271711559701E+00  9.558212370040E-01  4.023131361659E+00
   113   116     1    3.615236138328E+00 -9.558212370040E-01 -4.557932874082E+00
   113   117     1    3.615236138328E+00 -2.606148861013E+00  4.023131361659E+00
   113   118     1    2.271711559701E+00  2.606148861013E+00 -4.557932874082E+00
   113   119     1   -2.271711559701E+00 -9.558212370040E-01 -4.023131361659E+00
   113   120     1   -3.615236138328E+00  9.558212370040E-01  4.557932874082E+00
   121   121     1    1.541677086957E+00  2.547378628010E+00  6.578945320920E-01
   121   122     1    4.345270611072E+00 -2.547378628010E+00 -7.923169703648E+00
   121   123     1   -4.345270611072E+00  1.014591470006E+00 -6.578945320920E-01
   121   124     1   -1.541677086957E+00 -1.014591470006E+00  7.923169703648E+00
   121   125     1   -1.541677086957E+00 -2.547378628010E+00 -6.578945320920E-01
   121   126     1   -4.345270611072E+00  2.547378628010E+00  7.923169703648E+00
   121   127     1    4.345270611072E+00 -1.014591470006E+00  6.578945320920E-01
   121   128     1    1.541677086957E+00  1.014591470006E+00 -7.923169703648E+00
   129   129     1    1.821515568809E+00  8.706166360210E-01  2.017665273900E-01
   129   130     1    4.065432129220E+00 -8.706166360210E-01 -8.379297708350E+00
   129   131     1   -4.065432129220E+00  2.691353461995E+00 -2.017665273900E-01
   129   132     1   -1.821515568809E+00 -2.691353461995E+00  8.379297708350E+00
   129   133     1   -1.821515568809E+00 -8.706166360210E-01 -2.017665273900E-01
   129   134     1   -4.065432129220E+00  8.706166360210E-01  8.379297708350E+00
   129   135     1    4.065432129220E+00 -2.691353461995E+00  2.017665273900E-01
   129   136     1    1.821515568809E+00  2.691353461995E+00 -8.379297708350E+00
   137   137     1    7.461371453840E-01  1.252270563319E+00  1.549224120123E+00
   137   138     1    5.140810552645E+00 -1.252270563319E+00 -7.031840115617E+00
   137   139     1   -5.140810552645E+00  2.309699534697E+00 -1.549224120123E+00
   137   140     1   -7.461371453840E-01 -2.309699534697E+00  7.031840115617E+00
   137   141     1   -7.461371453840E-01 -1.252270563319E+00 -1.549224120123E+00
   137   142     1   -5.140810552645E+00  1.252270563319E+00  7.031840115617E+00
   137   143     1    5.140810552645E+00 -2.309699534697E+00  1.549224120123E+00
   137   144     1    7.461371453840E-01  2.309699534697E+00 -7.031840115617E+00
   145   145     1   -4.262622071230E-01  5.814971454720E-01 -6.036730792225E+00
   145   146     1   -5.460685490907E+00 -5.814971454720E-01  2.544333443515E+00
   145   147     1    5.460685490907E+00  2.980472952545E+00  6.036730792225E+00
   145   148     1    4.262622071230E-01 -2.980472952545E+00 -2.544333443515E+00
   145   149     1    4.262622071230E-01 -5.814971454720E-01  6.036730792225E+00
   145   150     1    5.460685490907E+00  5.814971454720E-01 -2.544333443515E+00
   145   151     1   -5.460685490907E+00 -2.980472952545E+00 -6.036730792225E+00
   145   152     1   -4.262622071230E-01  2.980472952545E+00  2.544333443515E+00
   153   153     1    8.297885210970E-01  4.891289341120E-01 -3.964754269618E+00
   153   154     1    5.057159176933E+00 -4.891289341120E-01  4.616309966122E+00
   153   155     1   -5.057159176933E+00  3.072841163904E+00  3.964754269618E+00
   153   156     1   -8.297885210970E-01 -3.072841163904E+00 -4.616309966122E+00
   153   157     1   -8.297885210970E-01 -4.891289341120E-01  3.964754269618E+00
   153   158     1   -5.057159176933E+00  4.891289341120E-01 -4.616309966122E+00
   153   159     1    5.057159176933E+00 -3.072841163904E+00 -3.964754269618E+00
   153   160     1    8.297885210970E-01  3.072841163904E+00  4.616309966122E+00

 SPACE  GROUP  N.                     :   61
 NUMBER OF SYMMETRY OPERATORS         :    8
 *******************************************************************************
 LATTICE PARAMETERS (ANGSTROMS AND DEGREES) - BOHR = 0.5291772083 ANGSTROM
 PRIMITIVE CELL - CENTRING CODE 1/0 VOLUME=  1439.499727 - DENSITY  1.394 g/cm^3
         A              B              C           ALPHA      BETA       GAMMA 
    11.77389540     7.12394020    17.16212847    90.000000  90.000000  90.000000
 *******************************************************************************
 ATOMS IN THE ASYMMETRIC UNIT   20 - ATOMS IN THE UNIT CELL:  160
     ATOM                 X/A                 Y/B                 Z/C    
 *******************************************************************************
      1 T   8 O    -2.370419284908E-01  2.467923844273E-01 -3.697111160478E-01
      2 F   8 O    -2.629580715075E-01 -2.467923844273E-01  1.302888839516E-01
      3 F   8 O     2.629580715075E-01  2.532076155728E-01  3.697111160478E-01
      4 F   8 O     2.370419284908E-01 -2.532076155728E-01 -1.302888839516E-01
      5 F   8 O     2.370419284908E-01 -2.467923844273E-01  3.697111160478E-01
      6 F   8 O     2.629580715075E-01  2.467923844273E-01 -1.302888839516E-01
      7 F   8 O    -2.629580715075E-01 -2.532076155728E-01 -3.697111160478E-01
      8 F   8 O    -2.370419284908E-01  2.532076155728E-01  1.302888839516E-01
      9 T   8 O    -1.057533286798E-01  2.732089111246E-01  1.858910740062E-03
     10 F   8 O    -3.942466713184E-01 -2.732089111246E-01 -4.981410892594E-01
     11 F   8 O     3.942466713184E-01  2.267910888756E-01 -1.858910740062E-03
     12 F   8 O     1.057533286798E-01 -2.267910888756E-01  4.981410892594E-01
     13 F   8 O     1.057533286798E-01 -2.732089111246E-01 -1.858910740062E-03
     14 F   8 O     3.942466713184E-01  2.732089111246E-01  4.981410892594E-01
     15 F   8 O    -3.942466713184E-01 -2.267910888756E-01  1.858910740062E-03
     16 F   8 O    -1.057533286798E-01  2.267910888756E-01 -4.981410892594E-01
     17 T   7 N     1.530111781405E-02  2.060557397360E-01 -9.673705715879E-02
     18 F   7 N     4.846988821842E-01 -2.060557397360E-01  4.032629428407E-01
     19 F   7 N    -4.846988821842E-01  2.939442602641E-01  9.673705715879E-02
     20 F   7 N    -1.530111781405E-02 -2.939442602641E-01 -4.032629428407E-01
     21 F   7 N    -1.530111781405E-02 -2.060557397360E-01  9.673705715879E-02
     22 F   7 N    -4.846988821842E-01  2.060557397360E-01 -4.032629428407E-01
     23 F   7 N     4.846988821842E-01 -2.939442602641E-01 -9.673705715879E-02
     24 F   7 N     1.530111781405E-02  2.939442602641E-01  4.032629428407E-01
     25 T   6 C    -1.781377909642E-01  2.304357010042E-01 -3.026498993479E-01
     26 F   6 C    -3.218622090340E-01 -2.304357010042E-01  1.973501006515E-01
     27 F   6 C     3.218622090340E-01  2.695642989960E-01  3.026498993479E-01
     28 F   6 C     1.781377909642E-01 -2.695642989960E-01 -1.973501006515E-01
     29 F   6 C     1.781377909642E-01 -2.304357010042E-01  3.026498993479E-01
     30 F   6 C     3.218622090340E-01  2.304357010042E-01 -1.973501006515E-01
     31 F   6 C    -3.218622090340E-01 -2.695642989960E-01 -3.026498993479E-01
     32 F   6 C    -1.781377909642E-01  2.695642989960E-01  1.973501006515E-01
     33 T   6 C    -5.607525989094E-02  2.112107735534E-01 -1.624838161463E-01
     34 F   6 C    -4.439247401074E-01 -2.112107735534E-01  3.375161838531E-01
     35 F   6 C     4.439247401074E-01  2.887892264467E-01  1.624838161463E-01
     36 F   6 C     5.607525989094E-02 -2.887892264467E-01 -3.375161838531E-01
     37 F   6 C     5.607525989094E-02 -2.112107735534E-01  1.624838161463E-01
     38 F   6 C     4.439247401074E-01  2.112107735534E-01 -3.375161838531E-01
     39 F   6 C    -4.439247401074E-01 -2.887892264467E-01 -1.624838161463E-01
     40 F   6 C    -5.607525989094E-02  2.887892264467E-01  3.375161838531E-01
     41 T   6 C    -1.640266867907E-01  2.909917829991E-01 -1.644935783790E-01
     42 F   6 C    -3.359733132076E-01 -2.909917829991E-01  3.355064216204E-01
     43 F   6 C     3.359733132076E-01  2.090082170010E-01  1.644935783790E-01
     44 F   6 C     1.640266867907E-01 -2.090082170010E-01 -3.355064216204E-01
     45 F   6 C     1.640266867907E-01 -2.909917829991E-01  1.644935783790E-01
     46 F   6 C     3.359733132076E-01  2.909917829991E-01 -3.355064216204E-01
     47 F   6 C    -3.359733132076E-01 -2.090082170010E-01 -1.644935783790E-01
     48 F   6 C    -1.640266867907E-01  2.090082170010E-01  3.355064216204E-01
     49 T   6 C    -2.241794069632E-01  3.001462754594E-01 -2.339143680328E-01
     50 F   6 C    -2.758205930351E-01 -3.001462754594E-01  2.660856319667E-01
     51 F   6 C     2.758205930351E-01  1.998537245407E-01  2.339143680328E-01
     52 F   6 C     2.241794069632E-01 -1.998537245407E-01 -2.660856319667E-01
     53 F   6 C     2.241794069632E-01 -3.001462754594E-01  2.339143680328E-01
     54 F   6 C     2.758205930351E-01  3.001462754594E-01 -2.660856319667E-01
     55 F   6 C    -2.758205930351E-01 -1.998537245407E-01 -2.339143680328E-01
     56 F   6 C    -2.241794069632E-01  1.998537245407E-01  2.660856319667E-01
     57 T   6 C     9.076296659404E-02  2.202217450531E-01  3.268124143613E-02
     58 F   6 C     4.092370334042E-01 -2.202217450531E-01 -4.673187585633E-01
     59 F   6 C    -4.092370334042E-01  2.797782549470E-01 -3.268124143613E-02
     60 F   6 C    -9.076296659404E-02 -2.797782549470E-01  4.673187585633E-01
     61 F   6 C    -9.076296659404E-02 -2.202217450531E-01 -3.268124143613E-02
     62 F   6 C    -4.092370334042E-01  2.202217450531E-01  4.673187585633E-01
     63 F   6 C     4.092370334042E-01 -2.797782549470E-01  3.268124143613E-02
     64 F   6 C     9.076296659404E-02  2.797782549470E-01 -4.673187585633E-01
     65 T   6 C    -7.215195675489E-02  1.443697166525E-01 -2.999818445410E-01
     66 F   6 C    -4.278480432433E-01 -1.443697166525E-01  2.000181554585E-01
     67 F   6 C     4.278480432433E-01  3.556302833477E-01  2.999818445410E-01
     68 F   6 C     7.215195675489E-02 -3.556302833477E-01 -2.000181554585E-01
     69 F   6 C     7.215195675489E-02 -1.443697166525E-01  2.999818445410E-01
     70 F   6 C     4.278480432433E-01  1.443697166525E-01 -2.000181554585E-01
     71 F   6 C    -4.278480432433E-01 -3.556302833477E-01 -2.999818445410E-01
     72 F   6 C    -7.215195675489E-02  3.556302833477E-01  2.000181554585E-01
     73 T   6 C    -9.556313720544E-03  2.347507200451E-01 -2.139447934268E-02
     74 F   6 C    -4.904436862778E-01 -2.347507200451E-01  4.786055206568E-01
     75 F   6 C     4.904436862778E-01  2.652492799551E-01  2.139447934268E-02
     76 F   6 C     9.556313720544E-03 -2.652492799551E-01 -4.786055206568E-01
     77 F   6 C     9.556313720544E-03 -2.347507200451E-01  2.139447934268E-02
     78 F   6 C     4.904436862778E-01  2.347507200451E-01 -4.786055206568E-01
     79 F   6 C    -4.904436862778E-01 -2.652492799551E-01 -2.139447934268E-02
     80 F   6 C    -9.556313720544E-03  2.652492799551E-01  4.786055206568E-01
     81 T   6 C    -1.210444203150E-02  1.356584493692E-01 -2.309580186992E-01
     82 F   6 C    -4.878955579667E-01 -1.356584493692E-01  2.690419813003E-01
     83 F   6 C     4.878955579667E-01  3.643415506310E-01  2.309580186992E-01
     84 F   6 C     1.210444203150E-02 -3.643415506310E-01 -2.690419813003E-01
     85 F   6 C     1.210444203150E-02 -1.356584493692E-01  2.309580186992E-01
     86 F   6 C     4.878955579667E-01  1.356584493692E-01 -2.690419813003E-01
     87 F   6 C    -4.878955579667E-01 -3.643415506310E-01 -2.309580186992E-01
     88 F   6 C    -1.210444203150E-02  3.643415506310E-01  2.690419813003E-01
     89 T   1 H    -1.863671646079E-01  2.299648563188E-01 -4.146146442330E-01
     90 F   1 H    -3.136328353904E-01 -2.299648563188E-01  8.538535576642E-02
     91 F   1 H     3.136328353904E-01  2.700351436813E-01  4.146146442330E-01
     92 F   1 H     1.863671646079E-01 -2.700351436813E-01 -8.538535576642E-02
     93 F   1 H     1.863671646079E-01 -2.299648563188E-01  4.146146442330E-01
     94 F   1 H     3.136328353904E-01  2.299648563188E-01 -8.538535576642E-02
     95 F   1 H    -3.136328353904E-01 -2.700351436813E-01 -4.146146442330E-01
     96 F   1 H    -1.863671646079E-01  2.700351436813E-01  8.538535576642E-02
     97 T   1 H     9.884257615305E-02  1.874873584108E-01 -1.093366406292E-01
     98 F   1 H     4.011574238452E-01 -1.874873584108E-01  3.906633593702E-01
     99 F   1 H    -4.011574238452E-01  3.125126415895E-01  1.093366406292E-01
    100 F   1 H    -9.884257615305E-02 -3.125126415895E-01 -3.906633593702E-01
    101 F   1 H    -9.884257615305E-02 -1.874873584108E-01  1.093366406292E-01
    102 F   1 H    -4.011574238452E-01  1.874873584108E-01 -3.906633593702E-01
    103 F   1 H     4.011574238452E-01 -3.125126415895E-01 -1.093366406292E-01
    104 F   1 H     9.884257615305E-02  3.125126415895E-01  3.906633593702E-01
    105 T   1 H    -2.016718208701E-01  3.503283299405E-01 -1.128826453881E-01
    106 F   1 H    -2.983281791282E-01 -3.503283299405E-01  3.871173546113E-01
    107 F   1 H     2.983281791282E-01  1.496716700598E-01  1.128826453881E-01
    108 F   1 H     2.016718208701E-01 -1.496716700598E-01 -3.871173546113E-01
    109 F   1 H     2.016718208701E-01 -3.503283299405E-01  1.128826453881E-01
    110 F   1 H     2.983281791282E-01  3.503283299405E-01 -3.871173546113E-01
    111 F   1 H    -2.983281791282E-01 -1.496716700598E-01 -1.128826453881E-01
    112 F   1 H    -2.016718208701E-01  1.496716700598E-01  3.871173546113E-01
    113 T   1 H    -3.070552282574E-01  3.658296938631E-01 -2.344191379490E-01
    114 F   1 H    -1.929447717408E-01 -3.658296938631E-01  2.655808620505E-01
    115 F   1 H     1.929447717408E-01  1.341703061371E-01  2.344191379490E-01
    116 F   1 H     3.070552282574E-01 -1.341703061371E-01 -2.655808620505E-01
    117 F   1 H     3.070552282574E-01 -3.658296938631E-01  2.344191379490E-01
    118 F   1 H     1.929447717408E-01  3.658296938631E-01 -2.655808620505E-01
    119 F   1 H    -1.929447717408E-01 -1.341703061371E-01 -2.344191379490E-01
    120 F   1 H    -3.070552282574E-01  1.341703061371E-01  2.655808620505E-01
    121 T   1 H     1.309402738084E-01  3.575800130144E-01  3.833408735895E-02
    122 F   1 H     3.690597261898E-01 -3.575800130144E-01 -4.616659126405E-01
    123 F   1 H    -3.690597261898E-01  1.424199869858E-01 -3.833408735895E-02
    124 F   1 H    -1.309402738084E-01 -1.424199869858E-01  4.616659126405E-01
    125 F   1 H    -1.309402738084E-01 -3.575800130144E-01 -3.833408735895E-02
    126 F   1 H    -3.690597261898E-01  3.575800130144E-01  4.616659126405E-01
    127 F   1 H     3.690597261898E-01 -1.424199869858E-01  3.833408735895E-02
    128 F   1 H     1.309402738084E-01  1.424199869858E-01 -4.616659126405E-01
    129 T   1 H     1.547079796048E-01  1.222099866175E-01  1.175649790322E-02
    130 F   1 H     3.452920203934E-01 -1.222099866175E-01 -4.882435020962E-01
    131 F   1 H    -3.452920203934E-01  3.777900133826E-01 -1.175649790322E-02
    132 F   1 H    -1.547079796048E-01 -3.777900133826E-01  4.882435020962E-01
    133 F   1 H    -1.547079796048E-01 -1.222099866175E-01 -1.175649790322E-02
    134 F   1 H    -3.452920203934E-01  1.222099866175E-01  4.882435020962E-01
    135 F   1 H     3.452920203934E-01 -3.777900133826E-01  1.175649790322E-02
    136 F   1 H     1.547079796048E-01  3.777900133826E-01 -4.882435020962E-01
    137 T   1 H     6.337215681661E-02  1.757834188469E-01  9.026992908809E-02
    138 F   1 H     4.366278431816E-01 -1.757834188469E-01 -4.097300709113E-01
    139 F   1 H    -4.366278431816E-01  3.242165811532E-01 -9.026992908809E-02
    140 F   1 H    -6.337215681661E-02 -3.242165811532E-01  4.097300709113E-01
    141 F   1 H    -6.337215681661E-02 -1.757834188469E-01 -9.026992908809E-02
    142 F   1 H    -4.366278431816E-01  1.757834188469E-01  4.097300709113E-01
    143 F   1 H     4.366278431816E-01 -3.242165811532E-01  9.026992908809E-02
    144 F   1 H     6.337215681661E-02  3.242165811532E-01 -4.097300709113E-01
    145 T   1 H    -3.620400834071E-02  8.162577583064E-02 -3.517472091093E-01
    146 F   1 H    -4.637959916576E-01 -8.162577583064E-02  1.482527908901E-01
    147 F   1 H     4.637959916576E-01  4.183742241696E-01  3.517472091093E-01
    148 F   1 H     3.620400834071E-02 -4.183742241696E-01 -1.482527908901E-01
    149 F   1 H     3.620400834071E-02 -8.162577583064E-02  3.517472091093E-01
    150 F   1 H     4.637959916576E-01  8.162577583064E-02 -1.482527908901E-01
    151 F   1 H    -4.637959916576E-01 -4.183742241696E-01 -3.517472091093E-01
    152 F   1 H    -3.620400834071E-02  4.183742241696E-01  1.482527908901E-01
    153 T   1 H     7.047697411783E-02  6.865988773805E-02 -2.310176314204E-01
    154 F   1 H     4.295230258805E-01 -6.865988773805E-02  2.689823685790E-01
    155 F   1 H    -4.295230258805E-01  4.313401122621E-01  2.310176314204E-01
    156 F   1 H    -7.047697411783E-02 -4.313401122621E-01 -2.689823685790E-01
    157 F   1 H    -7.047697411783E-02 -6.865988773805E-02  2.310176314204E-01
    158 F   1 H    -4.295230258805E-01  6.865988773805E-02 -2.689823685790E-01
    159 F   1 H     4.295230258805E-01 -4.313401122621E-01 -2.310176314204E-01
    160 F   1 H     7.047697411783E-02  4.313401122621E-01  2.689823685790E-01

 T = ATOM BELONGING TO THE ASYMMETRIC UNIT
 *******************************************************************************
 * GEOMETRY EDITING - INPUT COORDINATES ARE GIVEN IN ANGSTROM         
 *******************************************************************************

 GEOMETRY NOW FULLY CONSISTENT WITH THE GROUP

 FRQFRQFRQFRQFRQFRQFRQFRQFRQFRQFRQFRQFRQFRQFRQFRQFRQFRQFRQFRQFRQFRQFRQFRQFRQFRQ

                       FREQUENCY CALCULATION

 INFORMATION **** INPFREQ **** FREQUENCY CALCULATION RESTART(DATA FROM FREQINFO.DAT)
 INFORMATION **** INPFREQ ****  PRINTING OF EIGENVECTORS
 INFORMATION **** INPFREQ **** NEW DEFAULT - IMPOSING ECKART CONDITIONS TO THE HESSIAN

 GCALCO - MAX INDICES DIRECT LATTICE VECTOR    14    24     9
 NO.OF VECTORS CREATED 6999 STARS 1061 RMAX   253.19321 BOHR

 GEOMETRY FOR WAVE FUNCTION - DIMENSIONALITY OF THE SYSTEM    3
 (NON PERIODIC DIRECTION: LATTICE PARAMETER FORMALLY SET TO 500)
 *******************************************************************************
 LATTICE PARAMETERS (ANGSTROMS AND DEGREES) - BOHR = 0.5291772083 ANGSTROM
 PRIMITIVE CELL - CENTRING CODE 1/0 VOLUME=  1439.499727 - DENSITY  1.394 g/cm^3
         A              B              C           ALPHA      BETA       GAMMA 
    11.77389540     7.12394020    17.16212847    90.000000  90.000000  90.000000
 *******************************************************************************
 ATOMS IN THE ASYMMETRIC UNIT   20 - ATOMS IN THE UNIT CELL:  160
     ATOM                 X/A                 Y/B                 Z/C    
 *******************************************************************************
      1 T   8 O    -2.370419284908E-01  2.467923844273E-01 -3.697111160478E-01
      2 F   8 O    -2.629580715109E-01 -2.467923844273E-01  1.302888839516E-01
      3 F   8 O     2.629580715075E-01  2.532076155734E-01  3.697111160478E-01
      4 F   8 O     2.370419284908E-01 -2.532076155720E-01 -1.302888839528E-01
      5 F   8 O     2.370419284908E-01 -2.467923844273E-01  3.697111160478E-01
      6 F   8 O     2.629580715075E-01  2.467923844273E-01 -1.302888839528E-01
      7 F   8 O    -2.629580715109E-01 -2.532076155720E-01 -3.697111160478E-01
      8 F   8 O    -2.370419284908E-01  2.532076155734E-01  1.302888839516E-01
      9 T   8 O    -1.057533286798E-01  2.732089111246E-01  1.858910740062E-03
     10 F   8 O    -3.942466713219E-01 -2.732089111246E-01 -4.981410892605E-01
     11 F   8 O     3.942466713185E-01  2.267910888761E-01 -1.858910740062E-03
     12 F   8 O     1.057533286798E-01 -2.267910888747E-01  4.981410892594E-01
     13 F   8 O     1.057533286798E-01 -2.732089111246E-01 -1.858910740062E-03
     14 F   8 O     3.942466713185E-01  2.732089111246E-01  4.981410892594E-01
     15 F   8 O    -3.942466713219E-01 -2.267910888747E-01  1.858910740062E-03
     16 F   8 O    -1.057533286798E-01  2.267910888761E-01 -4.981410892605E-01
     17 T   7 N     1.530111781405E-02  2.060557397360E-01 -9.673705715879E-02
     18 F   7 N     4.846988821843E-01 -2.060557397360E-01  4.032629428406E-01
     19 F   7 N    -4.846988821877E-01  2.939442602647E-01  9.673705715879E-02
     20 F   7 N    -1.530111781405E-02 -2.939442602633E-01 -4.032629428418E-01
     21 F   7 N    -1.530111781405E-02 -2.060557397360E-01  9.673705715879E-02
     22 F   7 N    -4.846988821877E-01  2.060557397360E-01 -4.032629428418E-01
     23 F   7 N     4.846988821843E-01 -2.939442602633E-01 -9.673705715879E-02
     24 F   7 N     1.530111781405E-02  2.939442602647E-01  4.032629428406E-01
     25 T   6 C    -1.781377909642E-01  2.304357010042E-01 -3.026498993479E-01
     26 F   6 C    -3.218622090375E-01 -2.304357010042E-01  1.973501006515E-01
     27 F   6 C     3.218622090341E-01  2.695642989965E-01  3.026498993479E-01
     28 F   6 C     1.781377909642E-01 -2.695642989951E-01 -1.973501006526E-01
     29 F   6 C     1.781377909642E-01 -2.304357010042E-01  3.026498993479E-01
     30 F   6 C     3.218622090341E-01  2.304357010042E-01 -1.973501006526E-01
     31 F   6 C    -3.218622090375E-01 -2.695642989951E-01 -3.026498993479E-01
     32 F   6 C    -1.781377909642E-01  2.695642989965E-01  1.973501006515E-01
     33 T   6 C    -5.607525989094E-02  2.112107735534E-01 -1.624838161463E-01
     34 F   6 C    -4.439247401108E-01 -2.112107735534E-01  3.375161838531E-01
     35 F   6 C     4.439247401074E-01  2.887892264473E-01  1.624838161463E-01
     36 F   6 C     5.607525989094E-02 -2.887892264458E-01 -3.375161838543E-01
     37 F   6 C     5.607525989094E-02 -2.112107735534E-01  1.624838161463E-01
     38 F   6 C     4.439247401074E-01  2.112107735534E-01 -3.375161838543E-01
     39 F   6 C    -4.439247401108E-01 -2.887892264458E-01 -1.624838161463E-01
     40 F   6 C    -5.607525989094E-02  2.887892264473E-01  3.375161838531E-01
     41 T   6 C    -1.640266867907E-01  2.909917829991E-01 -1.644935783790E-01
     42 F   6 C    -3.359733132110E-01 -2.909917829991E-01  3.355064216204E-01
     43 F   6 C     3.359733132076E-01  2.090082170016E-01  1.644935783790E-01
     44 F   6 C     1.640266867907E-01 -2.090082170002E-01 -3.355064216216E-01
     45 F   6 C     1.640266867907E-01 -2.909917829991E-01  1.644935783790E-01
     46 F   6 C     3.359733132076E-01  2.909917829991E-01 -3.355064216216E-01
     47 F   6 C    -3.359733132110E-01 -2.090082170002E-01 -1.644935783790E-01
     48 F   6 C    -1.640266867907E-01  2.090082170016E-01  3.355064216204E-01
     49 T   6 C    -2.241794069632E-01  3.001462754594E-01 -2.339143680328E-01
     50 F   6 C    -2.758205930385E-01 -3.001462754594E-01  2.660856319667E-01
     51 F   6 C     2.758205930351E-01  1.998537245413E-01  2.339143680328E-01
     52 F   6 C     2.241794069632E-01 -1.998537245399E-01 -2.660856319678E-01
     53 F   6 C     2.241794069632E-01 -3.001462754594E-01  2.339143680328E-01
     54 F   6 C     2.758205930351E-01  3.001462754594E-01 -2.660856319678E-01
     55 F   6 C    -2.758205930385E-01 -1.998537245399E-01 -2.339143680328E-01
     56 F   6 C    -2.241794069632E-01  1.998537245413E-01  2.660856319667E-01
     57 T   6 C     9.076296659404E-02  2.202217450531E-01  3.268124143613E-02
     58 F   6 C     4.092370334043E-01 -2.202217450531E-01 -4.673187585645E-01
     59 F   6 C    -4.092370334077E-01  2.797782549476E-01 -3.268124143613E-02
     60 F   6 C    -9.076296659404E-02 -2.797782549461E-01  4.673187585633E-01
     61 F   6 C    -9.076296659404E-02 -2.202217450531E-01 -3.268124143613E-02
     62 F   6 C    -4.092370334077E-01  2.202217450531E-01  4.673187585633E-01
     63 F   6 C     4.092370334043E-01 -2.797782549461E-01  3.268124143613E-02
     64 F   6 C     9.076296659404E-02  2.797782549476E-01 -4.673187585645E-01
     65 T   6 C    -7.215195675489E-02  1.443697166525E-01 -2.999818445410E-01
     66 F   6 C    -4.278480432468E-01 -1.443697166525E-01  2.000181554584E-01
     67 F   6 C     4.278480432434E-01  3.556302833482E-01  2.999818445410E-01
     68 F   6 C     7.215195675489E-02 -3.556302833468E-01 -2.000181554596E-01
     69 F   6 C     7.215195675489E-02 -1.443697166525E-01  2.999818445410E-01
     70 F   6 C     4.278480432434E-01  1.443697166525E-01 -2.000181554596E-01
     71 F   6 C    -4.278480432468E-01 -3.556302833468E-01 -2.999818445410E-01
     72 F   6 C    -7.215195675489E-02  3.556302833482E-01  2.000181554584E-01
     73 T   6 C    -9.556313720544E-03  2.347507200451E-01 -2.139447934268E-02
     74 F   6 C    -4.904436862812E-01 -2.347507200451E-01  4.786055206567E-01
     75 F   6 C     4.904436862778E-01  2.652492799556E-01  2.139447934268E-02
     76 F   6 C     9.556313720544E-03 -2.652492799542E-01 -4.786055206579E-01
     77 F   6 C     9.556313720544E-03 -2.347507200451E-01  2.139447934268E-02
     78 F   6 C     4.904436862778E-01  2.347507200451E-01 -4.786055206579E-01
     79 F   6 C    -4.904436862812E-01 -2.652492799542E-01 -2.139447934268E-02
     80 F   6 C    -9.556313720544E-03  2.652492799556E-01  4.786055206567E-01
     81 T   6 C    -1.210444203150E-02  1.356584493692E-01 -2.309580186992E-01
     82 F   6 C    -4.878955579702E-01 -1.356584493692E-01  2.690419813002E-01
     83 F   6 C     4.878955579668E-01  3.643415506316E-01  2.309580186992E-01
     84 F   6 C     1.210444203150E-02 -3.643415506301E-01 -2.690419813014E-01
     85 F   6 C     1.210444203150E-02 -1.356584493692E-01  2.309580186992E-01
     86 F   6 C     4.878955579668E-01  1.356584493692E-01 -2.690419813014E-01
     87 F   6 C    -4.878955579702E-01 -3.643415506301E-01 -2.309580186992E-01
     88 F   6 C    -1.210444203150E-02  3.643415506316E-01  2.690419813002E-01
     89 T   1 H    -1.863671646079E-01  2.299648563188E-01 -4.146146442330E-01
     90 F   1 H    -3.136328353938E-01 -2.299648563188E-01  8.538535576642E-02
     91 F   1 H     3.136328353904E-01  2.700351436819E-01  4.146146442330E-01
     92 F   1 H     1.863671646079E-01 -2.700351436805E-01 -8.538535576758E-02
     93 F   1 H     1.863671646079E-01 -2.299648563188E-01  4.146146442330E-01
     94 F   1 H     3.136328353904E-01  2.299648563188E-01 -8.538535576758E-02
     95 F   1 H    -3.136328353938E-01 -2.700351436805E-01 -4.146146442330E-01
     96 F   1 H    -1.863671646079E-01  2.700351436819E-01  8.538535576642E-02
     97 T   1 H     9.884257615304E-02  1.874873584108E-01 -1.093366406292E-01
     98 F   1 H     4.011574238453E-01 -1.874873584108E-01  3.906633593702E-01
     99 F   1 H    -4.011574238487E-01  3.125126415899E-01  1.093366406292E-01
    100 F   1 H    -9.884257615305E-02 -3.125126415885E-01 -3.906633593714E-01
    101 F   1 H    -9.884257615305E-02 -1.874873584108E-01  1.093366406292E-01
    102 F   1 H    -4.011574238487E-01  1.874873584108E-01 -3.906633593714E-01
    103 F   1 H     4.011574238453E-01 -3.125126415885E-01 -1.093366406292E-01
    104 F   1 H     9.884257615305E-02  3.125126415899E-01  3.906633593702E-01
    105 T   1 H    -2.016718208701E-01  3.503283299405E-01 -1.128826453881E-01
    106 F   1 H    -2.983281791316E-01 -3.503283299405E-01  3.871173546113E-01
    107 F   1 H     2.983281791283E-01  1.496716700602E-01  1.128826453881E-01
    108 F   1 H     2.016718208701E-01 -1.496716700588E-01 -3.871173546124E-01
    109 F   1 H     2.016718208701E-01 -3.503283299405E-01  1.128826453881E-01
    110 F   1 H     2.983281791283E-01  3.503283299405E-01 -3.871173546124E-01
    111 F   1 H    -2.983281791316E-01 -1.496716700588E-01 -1.128826453881E-01
    112 F   1 H    -2.016718208701E-01  1.496716700602E-01  3.871173546113E-01
    113 T   1 H    -3.070552282574E-01  3.658296938631E-01 -2.344191379490E-01
    114 F   1 H    -1.929447717443E-01 -3.658296938631E-01  2.655808620504E-01
    115 F   1 H     1.929447717409E-01  1.341703061376E-01  2.344191379490E-01
    116 F   1 H     3.070552282574E-01 -1.341703061362E-01 -2.655808620516E-01
    117 F   1 H     3.070552282574E-01 -3.658296938631E-01  2.344191379490E-01
    118 F   1 H     1.929447717409E-01  3.658296938631E-01 -2.655808620516E-01
    119 F   1 H    -1.929447717443E-01 -1.341703061362E-01 -2.344191379490E-01
    120 F   1 H    -3.070552282574E-01  1.341703061376E-01  2.655808620504E-01
    121 T   1 H     1.309402738084E-01  3.575800130144E-01  3.833408735895E-02
    122 F   1 H     3.690597261899E-01 -3.575800130144E-01 -4.616659126416E-01
    123 F   1 H    -3.690597261933E-01  1.424199869863E-01 -3.833408735895E-02
    124 F   1 H    -1.309402738084E-01 -1.424199869849E-01  4.616659126405E-01
    125 F   1 H    -1.309402738084E-01 -3.575800130144E-01 -3.833408735895E-02
    126 F   1 H    -3.690597261933E-01  3.575800130144E-01  4.616659126405E-01
    127 F   1 H     3.690597261899E-01 -1.424199869849E-01  3.833408735895E-02
    128 F   1 H     1.309402738084E-01  1.424199869863E-01 -4.616659126416E-01
    129 T   1 H     1.547079796048E-01  1.222099866175E-01  1.175649790322E-02
    130 F   1 H     3.452920203935E-01 -1.222099866175E-01 -4.882435020974E-01
    131 F   1 H    -3.452920203969E-01  3.777900133832E-01 -1.175649790322E-02
    132 F   1 H    -1.547079796048E-01 -3.777900133818E-01  4.882435020962E-01
    133 F   1 H    -1.547079796048E-01 -1.222099866175E-01 -1.175649790322E-02
    134 F   1 H    -3.452920203969E-01  1.222099866175E-01  4.882435020962E-01
    135 F   1 H     3.452920203935E-01 -3.777900133818E-01  1.175649790322E-02
    136 F   1 H     1.547079796048E-01  3.777900133832E-01 -4.882435020974E-01
    137 T   1 H     6.337215681661E-02  1.757834188469E-01  9.026992908809E-02
    138 F   1 H     4.366278431817E-01 -1.757834188469E-01 -4.097300709125E-01
    139 F   1 H    -4.366278431851E-01  3.242165811538E-01 -9.026992908809E-02
    140 F   1 H    -6.337215681661E-02 -3.242165811524E-01  4.097300709113E-01
    141 F   1 H    -6.337215681661E-02 -1.757834188469E-01 -9.026992908809E-02
    142 F   1 H    -4.366278431851E-01  1.757834188469E-01  4.097300709113E-01
    143 F   1 H     4.366278431817E-01 -3.242165811524E-01  9.026992908809E-02
    144 F   1 H     6.337215681661E-02  3.242165811538E-01 -4.097300709125E-01
    145 T   1 H    -3.620400834071E-02  8.162577583064E-02 -3.517472091093E-01
    146 F   1 H    -4.637959916610E-01 -8.162577583064E-02  1.482527908901E-01
    147 F   1 H     4.637959916576E-01  4.183742241701E-01  3.517472091093E-01
    148 F   1 H     3.620400834071E-02 -4.183742241687E-01 -1.482527908913E-01
    149 F   1 H     3.620400834071E-02 -8.162577583064E-02  3.517472091093E-01
    150 F   1 H     4.637959916576E-01  8.162577583064E-02 -1.482527908913E-01
    151 F   1 H    -4.637959916610E-01 -4.183742241687E-01 -3.517472091093E-01
    152 F   1 H    -3.620400834071E-02  4.183742241701E-01  1.482527908901E-01
    153 T   1 H     7.047697411783E-02  6.865988773805E-02 -2.310176314204E-01
    154 F   1 H     4.295230258805E-01 -6.865988773805E-02  2.689823685790E-01
    155 F   1 H    -4.295230258839E-01  4.313401122627E-01  2.310176314204E-01
    156 F   1 H    -7.047697411783E-02 -4.313401122612E-01 -2.689823685802E-01
    157 F   1 H    -7.047697411783E-02 -6.865988773805E-02  2.310176314204E-01
    158 F   1 H    -4.295230258839E-01  6.865988773805E-02 -2.689823685802E-01
    159 F   1 H     4.295230258805E-01 -4.313401122612E-01 -2.310176314204E-01
    160 F   1 H     7.047697411783E-02  4.313401122627E-01  2.689823685790E-01

 T = ATOM BELONGING TO THE ASYMMETRIC UNIT

 ****    8 SYMMOPS - TRANSLATORS IN FRACTIONAL UNITS
 **** MATRICES AND TRANSLATORS IN THE CRYSTALLOGRAPHIC REFERENCE FRAME
   V INV                    ROTATION MATRICES                   TRANSLATORS
   1   1  1.00  0.00  0.00  0.00  1.00  0.00  0.00  0.00  1.00  0.00  0.00  0.00
   2   2 -1.00  0.00  0.00  0.00 -1.00  0.00  0.00  0.00  1.00  0.50  0.00  0.50
   3   3  1.00  0.00  0.00  0.00 -1.00  0.00  0.00  0.00 -1.00  0.50  0.50  0.00
   4   4 -1.00  0.00  0.00  0.00  1.00  0.00  0.00  0.00 -1.00  0.00  0.50  0.50
   5   5 -1.00  0.00  0.00  0.00 -1.00  0.00  0.00  0.00 -1.00  0.00  0.00  0.00
   6   6  1.00  0.00  0.00  0.00  1.00  0.00  0.00  0.00 -1.00  0.50  0.00  0.50
   7   7 -1.00  0.00  0.00  0.00  1.00  0.00  0.00  0.00  1.00  0.50  0.50  0.00
   8   8  1.00  0.00  0.00  0.00 -1.00  0.00  0.00  0.00  1.00  0.00  0.50  0.50

 DIRECT LATTICE VECTORS CARTESIAN COMPONENTS (ANGSTROM)
          X                    Y                    Z
   0.117738953961E+02   0.000000000000E+00   0.000000000000E+00
   0.000000000000E+00   0.712394019603E+01   0.000000000000E+00
   0.000000000000E+00   0.000000000000E+00   0.171621284715E+02


 CARTESIAN COORDINATES - PRIMITIVE CELL
 *******************************************************************************
 *      ATOM          X(ANGSTROM)         Y(ANGSTROM)         Z(ANGSTROM)
 *******************************************************************************
    1     8 O    -2.790906870540E+00  1.758134187496E+00 -6.345029670954E+00
    2     8 O    -3.096040827530E+00 -1.758134187496E+00  2.236034564786E+00
    3     8 O     3.096040827490E+00  1.803835910524E+00  6.345029670954E+00
    4     8 O     2.790906870540E+00 -1.803835910514E+00 -2.236034564806E+00
    5     8 O     2.790906870540E+00 -1.758134187496E+00  6.345029670954E+00
    6     8 O     3.096040827490E+00  1.758134187496E+00 -2.236034564806E+00
    7     8 O    -3.096040827530E+00 -1.803835910514E+00 -6.345029670954E+00
    8     8 O    -2.790906870540E+00  1.803835910524E+00  2.236034564786E+00
    9     8 O    -1.245128629665E+00  1.946323943874E+00  3.190286493800E-02
   10     8 O    -4.641819068405E+00 -1.946323943874E+00 -8.549161370822E+00
   11     8 O     4.641819068365E+00  1.615646154146E+00 -3.190286493800E-02
   12     8 O     1.245128629665E+00 -1.615646154136E+00  8.549161370802E+00
   13     8 O     1.245128629665E+00 -1.946323943874E+00 -3.190286493800E-02
   14     8 O     4.641819068365E+00  1.946323943874E+00  8.549161370802E+00
   15     8 O    -4.641819068405E+00 -1.615646154136E+00  3.190286493800E-02
   16     8 O    -1.245128629665E+00  1.615646154146E+00 -8.549161370822E+00
   17     7 N     1.801537605860E-01  1.467928766928E+00 -1.660213802914E+00
   18     7 N     5.706793937444E+00 -1.467928766928E+00  6.920850432826E+00
   19     7 N    -5.706793937484E+00  2.094041331092E+00  1.660213802914E+00
   20     7 N    -1.801537605860E-01 -2.094041331082E+00 -6.920850432846E+00
   21     7 N    -1.801537605860E-01 -1.467928766928E+00  1.660213802914E+00
   22     7 N    -5.706793937484E+00  1.467928766928E+00 -6.920850432846E+00
   23     7 N     5.706793937444E+00 -2.094041331082E+00 -1.660213802914E+00
   24     7 N     1.801537605860E-01  2.094041331092E+00  6.920850432826E+00
   25     6 C    -2.097375716905E+00  1.641610152984E+00 -5.194116454496E+00
   26     6 C    -3.789571981165E+00 -1.641610152984E+00  3.386947781244E+00
   27     6 C     3.789571981125E+00  1.920359945036E+00  5.194116454496E+00
   28     6 C     2.097375716905E+00 -1.920359945026E+00 -3.386947781264E+00
   29     6 C     2.097375716905E+00 -1.641610152984E+00  5.194116454496E+00
   30     6 C     3.789571981125E+00  1.641610152984E+00 -3.386947781264E+00
   31     6 C    -3.789571981165E+00 -1.920359945026E+00 -5.194116454496E+00
   32     6 C    -2.097375716905E+00  1.920359945036E+00  3.386947781244E+00
   33     6 C    -6.602242442650E-01  1.504652919552E+00 -2.788568127242E+00
   34     6 C    -5.226723453805E+00 -1.504652919552E+00  5.792496108498E+00
   35     6 C     5.226723453765E+00  2.057317178468E+00  2.788568127242E+00
   36     6 C     6.602242442650E-01 -2.057317178458E+00 -5.792496108518E+00
   37     6 C     6.602242442650E-01 -1.504652919552E+00  2.788568127242E+00
   38     6 C     5.226723453765E+00  1.504652919552E+00 -5.792496108518E+00
   39     6 C    -5.226723453805E+00 -2.057317178458E+00 -2.788568127242E+00
   40     6 C    -6.602242442650E-01  2.057317178468E+00  5.792496108498E+00
   41     6 C    -1.931233052443E+00  2.073008059622E+00 -2.823059924877E+00
   42     6 C    -3.955714645627E+00 -2.073008059622E+00  5.758004310863E+00
   43     6 C     3.955714645587E+00  1.488962038398E+00  2.823059924877E+00
   44     6 C     1.931233052443E+00 -1.488962038388E+00 -5.758004310883E+00
   45     6 C     1.931233052443E+00 -2.073008059622E+00  2.823059924877E+00
   46     6 C     3.955714645587E+00  2.073008059622E+00 -5.758004310883E+00
   47     6 C    -3.955714645627E+00 -1.488962038388E+00 -2.823059924877E+00
   48     6 C    -1.931233052443E+00  1.488962038398E+00  5.758004310863E+00
   49     6 C    -2.639464887544E+00  2.138224116434E+00 -4.014468435508E+00
   50     6 C    -3.247482810526E+00 -2.138224116434E+00  4.566595800232E+00
   51     6 C     3.247482810486E+00  1.423745981586E+00  4.014468435508E+00
   52     6 C     2.639464887544E+00 -1.423745981576E+00 -4.566595800252E+00
   53     6 C     2.639464887544E+00 -2.138224116434E+00  4.014468435508E+00
   54     6 C     3.247482810486E+00  2.138224116434E+00 -4.566595800252E+00
   55     6 C    -3.247482810526E+00 -1.423745981576E+00 -4.014468435508E+00
   56     6 C    -2.639464887544E+00  1.423745981586E+00  4.566595800232E+00
   57     6 C     1.068633674518E+00  1.568846541624E+00  5.608796641350E-01
   58     6 C     4.818314023512E+00 -1.568846541624E+00 -8.020184571625E+00
   59     6 C    -4.818314023552E+00  1.993123556396E+00 -5.608796641350E-01
   60     6 C    -1.068633674518E+00 -1.993123556386E+00  8.020184571605E+00
   61     6 C    -1.068633674518E+00 -1.568846541624E+00 -5.608796641350E-01
   62     6 C    -4.818314023552E+00  1.568846541624E+00  8.020184571605E+00
   63     6 C     4.818314023512E+00 -1.993123556386E+00  5.608796641350E-01
   64     6 C     1.068633674518E+00  1.993123556396E+00 -8.020184571625E+00
   65     6 C    -8.495095914560E-01  1.028481227550E+00 -5.148326955130E+00
   66     6 C    -5.037438106614E+00 -1.028481227550E+00  3.432737280610E+00
   67     6 C     5.037438106574E+00  2.533488870470E+00  5.148326955130E+00
   68     6 C     8.495095914560E-01 -2.533488870460E+00 -3.432737280630E+00
   69     6 C     8.495095914560E-01 -1.028481227550E+00  5.148326955130E+00
   70     6 C     5.037438106574E+00  1.028481227550E+00 -3.432737280630E+00
   71     6 C    -5.037438106614E+00 -2.533488870460E+00 -5.148326955130E+00
   72     6 C    -8.495095914560E-01  2.533488870470E+00  3.432737280610E+00
   73     6 C    -1.125150381180E-01  1.672350090576E+00 -3.671748030600E-01
   74     6 C    -5.774432659952E+00 -1.672350090576E+00  8.213889432680E+00
   75     6 C     5.774432659912E+00  1.889620007444E+00  3.671748030600E-01
   76     6 C     1.125150381180E-01 -1.889620007434E+00 -8.213889432700E+00
   77     6 C     1.125150381180E-01 -1.672350090576E+00  3.671748030600E-01
   78     6 C     5.774432659912E+00  1.672350090576E+00 -8.213889432700E+00
   79     6 C    -5.774432659952E+00 -1.889620007434E+00 -3.671748030600E-01
   80     6 C    -1.125150381180E-01  1.889620007444E+00  8.213889432680E+00
   81     6 C    -1.425164343070E-01  9.664226803920E-01 -3.963731188439E+00
   82     6 C    -5.744431263763E+00 -9.664226803920E-01  4.617333047301E+00
   83     6 C     5.744431263723E+00  2.595547417628E+00  3.963731188439E+00
   84     6 C     1.425164343070E-01 -2.595547417618E+00 -4.617333047321E+00
   85     6 C     1.425164343070E-01 -9.664226803920E-01  3.963731188439E+00
   86     6 C     5.744431263723E+00  9.664226803920E-01 -4.617333047321E+00
   87     6 C    -5.744431263763E+00 -2.595547417618E+00 -3.963731188439E+00
   88     6 C    -1.425164343070E-01  2.595547417628E+00  4.617333047301E+00
   89     1 H    -2.194267501361E+00  1.638255883604E+00 -7.115669790492E+00
   90     1 H    -3.692680196709E+00 -1.638255883604E+00  1.465394445248E+00
   91     1 H     3.692680196669E+00  1.923714214416E+00  7.115669790492E+00
   92     1 H     2.194267501361E+00 -1.923714214406E+00 -1.465394445268E+00
   93     1 H     2.194267501361E+00 -1.638255883604E+00  7.115669790492E+00
   94     1 H     3.692680196669E+00  1.638255883604E+00 -1.465394445268E+00
   95     1 H    -3.692680196709E+00 -1.923714214406E+00 -7.115669790492E+00
   96     1 H    -2.194267501361E+00  1.923714214416E+00  1.465394445248E+00
   97     1 H     1.163762152307E+00  1.335648728830E+00 -1.876449473121E+00
   98     1 H     4.723185545723E+00 -1.335648728830E+00  6.704614762619E+00
   99     1 H    -4.723185545763E+00  2.226321369190E+00  1.876449473121E+00
  100     1 H    -1.163762152307E+00 -2.226321369180E+00 -6.704614762639E+00
  101     1 H    -1.163762152307E+00 -1.335648728830E+00  1.876449473121E+00
  102     1 H    -4.723185545763E+00  1.335648728830E+00 -6.704614762639E+00
  103     1 H     4.723185545723E+00 -2.226321369180E+00 -1.876449473121E+00
  104     1 H     1.163762152307E+00  2.226321369190E+00  6.704614762619E+00
  105     1 H    -2.374462923265E+00  2.495718071471E+00 -1.937306462354E+00
  106     1 H    -3.512484774805E+00 -2.495718071471E+00  6.643757773386E+00
  107     1 H     3.512484774765E+00  1.066252026549E+00  1.937306462354E+00
  108     1 H     2.374462923265E+00 -1.066252026539E+00 -6.643757773406E+00
  109     1 H     2.374462923265E+00 -2.495718071471E+00  1.937306462354E+00
  110     1 H     3.512484774765E+00  2.495718071471E+00 -6.643757773406E+00
  111     1 H    -3.512484774805E+00 -1.066252026539E+00 -1.937306462354E+00
  112     1 H    -2.374462923265E+00  1.066252026549E+00  6.643757773386E+00
  113     1 H    -3.615236138328E+00  2.606148861013E+00 -4.023131361659E+00
  114     1 H    -2.271711559742E+00 -2.606148861013E+00  4.557932874081E+00
  115     1 H     2.271711559702E+00  9.558212370070E-01  4.023131361659E+00
  116     1 H     3.615236138328E+00 -9.558212369970E-01 -4.557932874101E+00
  117     1 H     3.615236138328E+00 -2.606148861013E+00  4.023131361659E+00
  118     1 H     2.271711559702E+00  2.606148861013E+00 -4.557932874101E+00
  119     1 H    -2.271711559742E+00 -9.558212369970E-01 -4.023131361659E+00
  120     1 H    -3.615236138328E+00  9.558212370070E-01  4.557932874081E+00
  121     1 H     1.541677086957E+00  2.547378628010E+00  6.578945320920E-01
  122     1 H     4.345270611073E+00 -2.547378628010E+00 -7.923169703668E+00
  123     1 H    -4.345270611113E+00  1.014591470010E+00 -6.578945320920E-01
  124     1 H    -1.541677086957E+00 -1.014591470000E+00  7.923169703648E+00
  125     1 H    -1.541677086957E+00 -2.547378628010E+00 -6.578945320920E-01
  126     1 H    -4.345270611113E+00  2.547378628010E+00  7.923169703648E+00
  127     1 H     4.345270611073E+00 -1.014591470000E+00  6.578945320920E-01
  128     1 H     1.541677086957E+00  1.014591470010E+00 -7.923169703668E+00
  129     1 H     1.821515568809E+00  8.706166360210E-01  2.017665273900E-01
  130     1 H     4.065432129221E+00 -8.706166360210E-01 -8.379297708370E+00
  131     1 H    -4.065432129261E+00  2.691353461999E+00 -2.017665273900E-01
  132     1 H    -1.821515568809E+00 -2.691353461989E+00  8.379297708350E+00
  133     1 H    -1.821515568809E+00 -8.706166360210E-01 -2.017665273900E-01
  134     1 H    -4.065432129261E+00  8.706166360210E-01  8.379297708350E+00
  135     1 H     4.065432129221E+00 -2.691353461989E+00  2.017665273900E-01
  136     1 H     1.821515568809E+00  2.691353461999E+00 -8.379297708370E+00
  137     1 H     7.461371453840E-01  1.252270563319E+00  1.549224120123E+00
  138     1 H     5.140810552646E+00 -1.252270563319E+00 -7.031840115637E+00
  139     1 H    -5.140810552686E+00  2.309699534701E+00 -1.549224120123E+00
  140     1 H    -7.461371453840E-01 -2.309699534691E+00  7.031840115617E+00
  141     1 H    -7.461371453840E-01 -1.252270563319E+00 -1.549224120123E+00
  142     1 H    -5.140810552686E+00  1.252270563319E+00  7.031840115617E+00
  143     1 H     5.140810552646E+00 -2.309699534691E+00  1.549224120123E+00
  144     1 H     7.461371453840E-01  2.309699534701E+00 -7.031840115637E+00
  145     1 H    -4.262622071230E-01  5.814971454720E-01 -6.036730792225E+00
  146     1 H    -5.460685490947E+00 -5.814971454720E-01  2.544333443515E+00
  147     1 H     5.460685490907E+00  2.980472952548E+00  6.036730792225E+00
  148     1 H     4.262622071230E-01 -2.980472952538E+00 -2.544333443535E+00
  149     1 H     4.262622071230E-01 -5.814971454720E-01  6.036730792225E+00
  150     1 H     5.460685490907E+00  5.814971454720E-01 -2.544333443535E+00
  151     1 H    -5.460685490947E+00 -2.980472952538E+00 -6.036730792225E+00
  152     1 H    -4.262622071230E-01  2.980472952548E+00  2.544333443515E+00
  153     1 H     8.297885210970E-01  4.891289341120E-01 -3.964754269618E+00
  154     1 H     5.057159176933E+00 -4.891289341120E-01  4.616309966122E+00
  155     1 H    -5.057159176973E+00  3.072841163908E+00  3.964754269618E+00
  156     1 H    -8.297885210970E-01 -3.072841163898E+00 -4.616309966142E+00
  157     1 H    -8.297885210970E-01 -4.891289341120E-01  3.964754269618E+00
  158     1 H    -5.057159176973E+00  4.891289341120E-01 -4.616309966142E+00
  159     1 H     5.057159176933E+00 -3.072841163898E+00 -3.964754269618E+00
  160     1 H     8.297885210970E-01  3.072841163908E+00  4.616309966122E+00

 *******************************************************************************
 STARTING BASIS SET HANDLING 
 *******************************************************************************

 Loading internal basis set: DEF2-MSVP           

 Please cite in your publication:
 Fully Optimized Contracted Gaussian Basis Sets for Atoms Li to Kr. A. Schfer, H. Horn and R. Ahlrichs; J. Chem. Phys. 97, 2571 (1992).                                                                                                                         
 S. Grimme, J. G. Brandenburg, C. Bannwarth, and A. Hansen, J. Chem. Phys., 143, 054107 (2015).                                                                                                                                                                  

 *******************************************************************************
 LOCAL ATOMIC FUNCTIONS BASIS SET
 *******************************************************************************
   ATOM   X(AU)   Y(AU)   Z(AU)  N. TYPE  EXPONENT  S COEF   P COEF   D/F/G COEF
 *******************************************************************************
   1 O   -5.274   3.322 -11.990
                                  1 S  
                                         6.773E+03 1.727E-03 0.000E+00 0.000E+00
                                         1.017E+03 1.325E-02 0.000E+00 0.000E+00
                                         2.313E+02 6.603E-02 0.000E+00 0.000E+00
                                         6.501E+01 2.353E-01 0.000E+00 0.000E+00
                                         2.050E+01 5.498E-01 0.000E+00 0.000E+00
                                  2 S  
                                         6.716E+00 1.000E+00 0.000E+00 0.000E+00
                                  3 S  
                                         1.147E+00 1.000E+00 0.000E+00 0.000E+00
                                  4 S  
                                         3.342E-01 1.000E+00 0.000E+00 0.000E+00
                           5-     7 P  
                                         1.769E+01 0.000E+00 4.359E-02 0.000E+00
                                         3.854E+00 0.000E+00 2.318E-01 0.000E+00
                                         1.047E+00 0.000E+00 5.146E-01 0.000E+00
                           8-    10 P  
                                         2.759E-01 0.000E+00 1.000E+00 0.000E+00
                          11-    15 D  
                                         8.000E-01 0.000E+00 0.000E+00 1.000E+00
   2 O   -5.851  -3.322   4.225
   3 O    5.851   3.409  11.990
   4 O    5.274  -3.409  -4.225
   5 O    5.274  -3.322  11.990
   6 O    5.851   3.322  -4.225
   7 O   -5.851  -3.409 -11.990
   8 O   -5.274   3.409   4.225
   9 O   -2.353   3.678   0.060
  10 O   -8.772  -3.678 -16.156
  11 O    8.772   3.053  -0.060
  12 O    2.353  -3.053  16.156
  13 O    2.353  -3.678  -0.060
  14 O    8.772   3.678  16.156
  15 O   -8.772  -3.053   0.060
  16 O   -2.353   3.053 -16.156
  17 N    0.340   2.774  -3.137
                                241 S  
                                         5.072E+03 1.707E-03 0.000E+00 0.000E+00
                                         7.614E+02 1.309E-02 0.000E+00 0.000E+00
                                         1.732E+02 6.510E-02 0.000E+00 0.000E+00
                                         4.867E+01 2.305E-01 0.000E+00 0.000E+00
                                         1.533E+01 5.330E-01 0.000E+00 0.000E+00
                                242 S  
                                         5.019E+00 1.000E+00 0.000E+00 0.000E+00
                                243 S  
                                         8.355E-01 1.000E+00 0.000E+00 0.000E+00
                                244 S  
                                         2.463E-01 1.000E+00 0.000E+00 0.000E+00
                         245-   247 P  
                                         1.355E+01 0.000E+00 4.063E-02 0.000E+00
                                         2.918E+00 0.000E+00 2.209E-01 0.000E+00
                                         7.983E-01 0.000E+00 5.186E-01 0.000E+00
                         248-   250 P  
                                         2.190E-01 0.000E+00 1.000E+00 0.000E+00
                         251-   255 D  
                                         8.000E-01 0.000E+00 0.000E+00 1.000E+00
  18 N   10.784  -2.774  13.079
  19 N  -10.784   3.957   3.137
  20 N   -0.340  -3.957 -13.079
  21 N   -0.340  -2.774   3.137
  22 N  -10.784   2.774 -13.079
  23 N   10.784  -3.957  -3.137
  24 N    0.340   3.957  13.079
  25 C   -3.963   3.102  -9.815
                                361 S  
                                         3.624E+03 1.634E-03 0.000E+00 0.000E+00
                                         5.440E+02 1.252E-02 0.000E+00 0.000E+00
                                         1.237E+02 6.211E-02 0.000E+00 0.000E+00
                                         3.476E+01 2.182E-01 0.000E+00 0.000E+00
                                         1.093E+01 4.980E-01 0.000E+00 0.000E+00
                                362 S  
                                         3.574E+00 1.000E+00 0.000E+00 0.000E+00
                                363 S  
                                         5.748E-01 1.000E+00 0.000E+00 0.000E+00
                                364 S  
                                         1.730E-01 1.000E+00 0.000E+00 0.000E+00
                         365-   367 P  
                                         9.443E+00 0.000E+00 3.790E-02 0.000E+00
                                         2.002E+00 0.000E+00 2.082E-01 0.000E+00
                                         5.463E-01 0.000E+00 5.047E-01 0.000E+00
                         368-   370 P  
                                         1.520E-01 0.000E+00 1.000E+00 0.000E+00
                         371-   375 D  
                                         8.000E-01 0.000E+00 0.000E+00 1.000E+00
  26 C   -7.161  -3.102   6.400
  27 C    7.161   3.629   9.815
  28 C    3.963  -3.629  -6.400
  29 C    3.963  -3.102   9.815
  30 C    7.161   3.102  -6.400
  31 C   -7.161  -3.629  -9.815
  32 C   -3.963   3.629   6.400
  33 C   -1.248   2.843  -5.270
  34 C   -9.877  -2.843  10.946
  35 C    9.877   3.888   5.270
  36 C    1.248  -3.888 -10.946
  37 C    1.248  -2.843   5.270
  38 C    9.877   2.843 -10.946
  39 C   -9.877  -3.888  -5.270
  40 C   -1.248   3.888  10.946
  41 C   -3.650   3.917  -5.335
  42 C   -7.475  -3.917  10.881
  43 C    7.475   2.814   5.335
  44 C    3.650  -2.814 -10.881
  45 C    3.650  -3.917   5.335
  46 C    7.475   3.917 -10.881
  47 C   -7.475  -2.814  -5.335
  48 C   -3.650   2.814  10.881
  49 C   -4.988   4.041  -7.586
  50 C   -6.137  -4.041   8.630
  51 C    6.137   2.690   7.586
  52 C    4.988  -2.690  -8.630
  53 C    4.988  -4.041   7.586
  54 C    6.137   4.041  -8.630
  55 C   -6.137  -2.690  -7.586
  56 C   -4.988   2.690   8.630
  57 C    2.019   2.965   1.060
  58 C    9.105  -2.965 -15.156
  59 C   -9.105   3.766  -1.060
  60 C   -2.019  -3.766  15.156
  61 C   -2.019  -2.965  -1.060
  62 C   -9.105   2.965  15.156
  63 C    9.105  -3.766   1.060
  64 C    2.019   3.766 -15.156
  65 C   -1.605   1.944  -9.729
  66 C   -9.519  -1.944   6.487
  67 C    9.519   4.788   9.729
  68 C    1.605  -4.788  -6.487
  69 C    1.605  -1.944   9.729
  70 C    9.519   1.944  -6.487
  71 C   -9.519  -4.788  -9.729
  72 C   -1.605   4.788   6.487
  73 C   -0.213   3.160  -0.694
  74 C  -10.912  -3.160  15.522
  75 C   10.912   3.571   0.694
  76 C    0.213  -3.571 -15.522
  77 C    0.213  -3.160   0.694
  78 C   10.912   3.160 -15.522
  79 C  -10.912  -3.571  -0.694
  80 C   -0.213   3.571  15.522
  81 C   -0.269   1.826  -7.490
  82 C  -10.855  -1.826   8.725
  83 C   10.855   4.905   7.490
  84 C    0.269  -4.905  -8.725
  85 C    0.269  -1.826   7.490
  86 C   10.855   1.826  -8.725
  87 C  -10.855  -4.905  -7.490
  88 C   -0.269   4.905   8.725
  89 H   -4.147   3.096 -13.447
                               1321 S  
                                         1.874E+01 1.968E-02 0.000E+00 0.000E+00
                                         2.826E+00 1.380E-01 0.000E+00 0.000E+00
                                         6.401E-01 4.783E-01 0.000E+00 0.000E+00
                               1322 S  
                                         1.756E-01 1.000E+00 0.000E+00 0.000E+00
  90 H   -6.978  -3.096   2.769
  91 H    6.978   3.635  13.447
  92 H    4.147  -3.635  -2.769
  93 H    4.147  -3.096  13.447
  94 H    6.978   3.096  -2.769
  95 H   -6.978  -3.635 -13.447
  96 H   -4.147   3.635   2.769
  97 H    2.199   2.524  -3.546
  98 H    8.926  -2.524  12.670
  99 H   -8.926   4.207   3.546
 100 H   -2.199  -4.207 -12.670
 101 H   -2.199  -2.524   3.546
 102 H   -8.926   2.524 -12.670
 103 H    8.926  -4.207  -3.546
 104 H    2.199   4.207  12.670
 105 H   -4.487   4.716  -3.661
 106 H   -6.638  -4.716  12.555
 107 H    6.638   2.015   3.661
 108 H    4.487  -2.015 -12.555
 109 H    4.487  -4.716   3.661
 110 H    6.638   4.716 -12.555
 111 H   -6.638  -2.015  -3.661
 112 H   -4.487   2.015  12.555
 113 H   -6.832   4.925  -7.603
 114 H   -4.293  -4.925   8.613
 115 H    4.293   1.806   7.603
 116 H    6.832  -1.806  -8.613
 117 H    6.832  -4.925   7.603
 118 H    4.293   4.925  -8.613
 119 H   -4.293  -1.806  -7.603
 120 H   -6.832   1.806   8.613
 121 H    2.913   4.814   1.243
 122 H    8.211  -4.814 -14.973
 123 H   -8.211   1.917  -1.243
 124 H   -2.913  -1.917  14.973
 125 H   -2.913  -4.814  -1.243
 126 H   -8.211   4.814  14.973
 127 H    8.211  -1.917   1.243
 128 H    2.913   1.917 -14.973
 129 H    3.442   1.645   0.381
 130 H    7.683  -1.645 -15.835
 131 H   -7.683   5.086  -0.381
 132 H   -3.442  -5.086  15.835
 133 H   -3.442  -1.645  -0.381
 134 H   -7.683   1.645  15.835
 135 H    7.683  -5.086   0.381
 136 H    3.442   5.086 -15.835
 137 H    1.410   2.366   2.928
 138 H    9.715  -2.366 -13.288
 139 H   -9.715   4.365  -2.928
 140 H   -1.410  -4.365  13.288
 141 H   -1.410  -2.366  -2.928
 142 H   -9.715   2.366  13.288
 143 H    9.715  -4.365   2.928
 144 H    1.410   4.365 -13.288
 145 H   -0.806   1.099 -11.408
 146 H  -10.319  -1.099   4.808
 147 H   10.319   5.632  11.408
 148 H    0.806  -5.632  -4.808
 149 H    0.806  -1.099  11.408
 150 H   10.319   1.099  -4.808
 151 H  -10.319  -5.632 -11.408
 152 H   -0.806   5.632   4.808
 153 H    1.568   0.924  -7.492
 154 H    9.557  -0.924   8.724
 155 H   -9.557   5.807   7.492
 156 H   -1.568  -5.807  -8.724
 157 H   -1.568  -0.924   7.492
 158 H   -9.557   0.924  -8.724
 159 H    9.557  -5.807  -7.492
 160 H    1.568   5.807   8.724

 *******************************************************************************
 FINISHED BASIS SET HANDLING 
 *******************************************************************************

 INFORMATION **** SET_MPP **** PCRYSTAL CALCULATION
 INFORMATION **** READM2 **** NEW DEFAULT: FOCK/KS MATRIX MIXING SET TO 30 %
 INFORMATION **** READM2 **** NEW DEFAULT: FULL DIRECT SCF MODE
 INFORMATION **** READM2 **** NEW DEFAULT: COULOMB BIPOLAR BUFFER SET TO 32 Mb
 INFORMATION **** READM2 **** NEW DEFAULT: EXCHANGE BIPOLAR BUFFER SET TO 32 Mb

 *******************************************************************************
 NEW DEFAULT: DFT INTEGRATION GRID INCREASED TO XLGRID
 NEW DEFAULT: DIIS ACCELERATOR ACTIVE
 USE KEYWORD NODIIS TO TURN IT OFF
 *******************************************************************************

 INFORMATION **** RDDFTP **** PBEh-3c calculation
 INFORMATION **** RDDFTP **** PBEh hybrid functional combined with D3 and gCP

PLEASE CITE:
(1) PBEh-3c Reference
 S. Grimme, J. G. Brandenburg, C. Bannwarth, and A. Hansen, 
 J. Chem. Phys. 143, 054107 (2015)
(2) DFT-D3 Reference
 S. Grimme, J. Antony, S. Ehrlich, and H. Krieg, J. Chem. Phys. 132, 154104 (2010)
(3) gCP Reference
 H. Kruse and S. Grimme J. Chem. Phys, 136, 154101 (2012)
 J. G. Brandenburg, M. Alessio, B. Civalleri, M. F. Peintinger
 T. Bredow, and S. Grimme, J. Phys. Chem. A, 117, 9282 (2013) 

 WARNING **** RDDFTP **** PBEh-3c has to be combined with def2-mSVP basis set
 WARNING **** RDDFTP **** Note: Harmonic frequencies are scaled by 0.95
 WARNING **** RDDFTP **** as recommended in original publication
 INFORMATION **** TOLDEE **** SCF TOL ON TOTAL ENERGY SET TO           9
 INFORMATION **** TOLINTEG **** COULOMB AND EXCHANGE SERIES TOLERANCES MODIFIED
 INFORMATION **** MAXCYCLE **** MAX NUMBER OF SCF CYCLES SET TO          30
 WARNING **** READM2 **** PROBABLE LOSS IN FREQCALC ACCURACY; SCF TOL LT          10
 *******************************************************************************
 N. OF ATOMS PER CELL       160  COULOMB OVERLAP TOL         (T1) 10**   -8
 NUMBER OF SHELLS           760  COULOMB PENETRATION TOL     (T2) 10**   -8
 NUMBER OF AO              1464  EXCHANGE OVERLAP TOL        (T3) 10**   -8
 N. OF ELECTRONS PER CELL   640  EXCHANGE PSEUDO OVP (F(G))  (T4) 10**   -8
 CORE ELECTRONS PER CELL    176  EXCHANGE PSEUDO OVP (P(G))  (T5) 10**  -24
 N. OF SYMMETRY OPERATORS     8  POLE ORDER IN MONO ZONE                  4
 *******************************************************************************
 TYPE OF CALCULATION :  RESTRICTED CLOSED SHELL
 KOHN-SHAM HAMILTONIAN

 (EXCHANGE)[CORRELATION] FUNCTIONAL:(PBEh-3c)[PBEh-3c]


 HYBRID EXCHANGE - PERCENTAGE OF FOCK EXCHANGE    42.0000

 CAPPA:IS1  4;IS2  4;IS3  2; K PTS MONK NET  18; SYMMOPS:K SPACE   8;G SPACE   8

 *******************************************************************************
 MAX NUMBER OF SCF CYCLES      30  CONVERGENCE ON DELTAP        10**-19
 WEIGHT OF F(I) IN F(I+1)      50% CONVERGENCE ON ENERGY        10**- 9
 SHRINK. FACT.(MONKH.)    4  4  2  NUMBER OF K POINTS IN THE IBZ     18
 SHRINKING FACTOR(GILAT NET)    4  NUMBER OF K POINTS(GILAT NET)     18
 *******************************************************************************
 *** K POINTS COORDINATES (OBLIQUE COORDINATES IN UNITS OF IS =  4)
   1-R(  0  0  0)   2-C(  1  0  0)   3-R(  2  0  0)   4-C(  0  1  0)
   5-C(  1  1  0)   6-C(  2  1  0)   7-R(  0  2  0)   8-C(  1  2  0)
   9-R(  2  2  0)  10-R(  0  0  1)  11-C(  1  0  1)  12-R(  2  0  1)
  13-C(  0  1  1)  14-C(  1  1  1)  15-C(  2  1  1)  16-R(  0  2  1)
  17-C(  1  2  1)  18-R(  2  2  1)

 DIRECT LATTICE VECTORS COMPON. (A.U.)     RECIP. LATTICE VECTORS COMPON. (A.U.) 
        X            Y            Z              X            Y            Z
   22.2494378    0.0000000    0.0000000      0.2823975    0.0000000    0.0000000
    0.0000000   13.4622960    0.0000000      0.0000000    0.4667246    0.0000000
    0.0000000    0.0000000   32.4317227      0.0000000    0.0000000    0.1937358

 DISK SPACE FOR EIGENVECTORS (FTN 10)    60012288 REALS

 SYMMETRY ADAPTION OF THE BLOCH FUNCTIONS ENABLED
 TTTTTTTTTTTTTTTTTTTTTTTTTTTTTT gordsh1     TELAPSE        4.00 TCPU        1.97

 MATRIX SIZE: P(G) 4787280, F(G)  450376, P(G) IRR  303861, F(G) IRR   57063
 MAX G-VECTOR INDEX FOR 1- AND 2-ELECTRON INTEGRALS  83

 TTTTTTTTTTTTTTTTTTTTTTTTTTTTTT INPUT       TELAPSE        4.11 TCPU        2.08

 NEIGHBORS OF THE NON-EQUIVALENT ATOMS

 N = NUMBER OF NEIGHBORS AT DISTANCE R
    ATOM  N     R/ANG      R/AU   NEIGHBORS (ATOM LABELS AND CELL INDICES)
   1 O    1     0.9820     1.8556   89 H    0 0 0
   1 O    1     1.3488     2.5488   25 C    0 0 0
   1 O    1     2.0103     3.7990  102 H    0 0 0
   1 O    1     2.3662     4.4715   49 C    0 0 0
   1 O    1     2.3945     4.5249   65 C    0 0 0
   1 O    1     2.6057     4.9241  113 H    0 0 0

   9 O    1     1.2317     2.3276   73 C    0 0 0
   9 O    1     1.7194     3.2492   96 H    0 0 0
   9 O    1     2.2635     4.2774   17 N    0 0 0
   9 O    1     2.3356     4.4136  105 H    0 0 0
   9 O    1     2.4033     4.5416   57 C    0 0 0
   9 O    1     2.5979     4.9093  137 H    0 0 0

  17 N    1     1.0157     1.9195   97 H    0 0 0
  17 N    1     1.3414     2.5349   73 C    0 0 0
  17 N    1     1.4074     2.6596   33 C    0 0 0
  17 N    1     2.2635     4.2774    9 O    0 0 0
  17 N    1     2.3795     4.4965   81 C    0 0 0
  17 N    1     2.3943     4.5246   57 C    0 0 0

  25 C    1     1.3488     2.5488    1 O    0 0 0
  25 C    1     1.3900     2.6267   49 C    0 0 0
  25 C    1     1.3911     2.6288   65 C    0 0 0
  25 C    1     1.9240     3.6358   89 H    0 0 0
  25 C    1     2.1460     4.0554  113 H    0 0 0
  25 C    1     2.1509     4.0647  145 H    0 0 0

  33 C    1     1.3924     2.6312   81 C    0 0 0
  33 C    1     1.3927     2.6319   41 C    0 0 0
  33 C    1     1.4074     2.6596   17 N    0 0 0
  33 C    1     2.0463     3.8670   97 H    0 0 0
  33 C    1     2.1529     4.0683  153 H    0 0 0
  33 C    1     2.1553     4.0730  105 H    0 0 0

  41 C    1     1.0769     2.0350  105 H    0 0 0
  41 C    1     1.3876     2.6221   49 C    0 0 0
  41 C    1     1.3927     2.6319   33 C    0 0 0
  41 C    1     2.1355     4.0355  113 H    0 0 0
  41 C    1     2.3927     4.5216   81 C    0 0 0
  41 C    1     2.4157     4.5650   25 C    0 0 0

  49 C    1     1.0822     2.0451  113 H    0 0 0
  49 C    1     1.3876     2.6221   41 C    0 0 0
  49 C    1     1.3900     2.6267   25 C    0 0 0
  49 C    1     2.1243     4.0143  105 H    0 0 0
  49 C    1     2.3662     4.4715    1 O    0 0 0
  49 C    1     2.3919     4.5200   65 C    0 0 0

  57 C    1     1.0868     2.0537  137 H    0 0 0
  57 C    1     1.0878     2.0557  129 H    0 0 0
  57 C    1     1.0912     2.0621  121 H    0 0 0
  57 C    1     1.5057     2.8453   73 C    0 0 0
  57 C    1     2.3943     4.5246   17 N    0 0 0
  57 C    1     2.4033     4.5416    9 O    0 0 0

  65 C    1     1.0808     2.0425  145 H    0 0 0
  65 C    1     1.3809     2.6096   81 C    0 0 0
  65 C    1     1.3911     2.6288   25 C    0 0 0
  65 C    1     2.1241     4.0140  153 H    0 0 0
  65 C    1     2.3919     4.5200   49 C    0 0 0
  65 C    1     2.3945     4.5249    1 O    0 0 0

  73 C    1     1.2317     2.3276    9 O    0 0 0
  73 C    1     1.3414     2.5349   17 N    0 0 0
  73 C    1     1.5057     2.8453   57 C    0 0 0
  73 C    1     2.0050     3.7890   97 H    0 0 0
  73 C    1     2.1337     4.0322  121 H    0 0 0
  73 C    1     2.1416     4.0470  137 H    0 0 0

  81 C    1     1.0831     2.0468  153 H    0 0 0
  81 C    1     1.3809     2.6096   65 C    0 0 0
  81 C    1     1.3924     2.6312   33 C    0 0 0
  81 C    1     2.1274     4.0203  145 H    0 0 0
  81 C    1     2.3795     4.4965   17 N    0 0 0
  81 C    1     2.3927     4.5216   41 C    0 0 0

  89 H    1     0.9820     1.8556    1 O    0 0 0
  89 H    1     1.7194     3.2492   16 O    0 0 0
  89 H    1     1.9240     3.6358   25 C    0 0 0
  89 H    1     2.3252     4.3940  145 H    0 0 0
  89 H    1     2.4598     4.6484   65 C    0 0 0
  89 H    1     2.5799     4.8753  102 H    0 0 0

  97 H    1     1.0157     1.9195   17 N    0 0 0
  97 H    1     2.0050     3.7890   73 C    0 0 0
  97 H    1     2.0103     3.7990    6 O    0 0 0
  97 H    1     2.0463     3.8670   33 C    0 0 0
  97 H    1     2.2289     4.2120  129 H    0 0 0
  97 H    1     2.2780     4.3047  153 H    0 0 0

 105 H    1     1.0769     2.0350   41 C    0 0 0
 105 H    1     2.1243     4.0143   49 C    0 0 0
 105 H    1     2.1553     4.0730   33 C    0 0 0
 105 H    1     2.3356     4.4136    9 O    0 0 0
 105 H    1     2.4295     4.5911  113 H    0 0 0
 105 H    1     2.4310     4.5939  131 H    0 0 0

 113 H    1     1.0822     2.0451   49 C    0 0 0
 113 H    1     2.1355     4.0355   41 C    0 0 0
 113 H    1     2.1460     4.0554   25 C    0 0 0
 113 H    1     2.4295     4.5911  105 H    0 0 0
 113 H    1     2.6057     4.9241    1 O    0 0 0
 113 H    1     2.6292     4.9685  158 H    0 0 0

 121 H    1     1.0912     2.0621   57 C    0 0 0
 121 H    1     1.7601     3.3261  129 H    0 0 0
 121 H    1     1.7620     3.3297  137 H    0 0 0
 121 H    1     2.1337     4.0322   73 C    0 0 0
 121 H    1     2.5808     4.8769  109 H    0 1 0
 121 H    1     2.7353     5.1690   13 O    0 1 0

 129 H    1     1.0878     2.0557   57 C    0 0 0
 129 H    1     1.7601     3.3261  121 H    0 0 0
 129 H    1     1.7657     3.3367  137 H    0 0 0
 129 H    1     2.1695     4.0999   73 C    0 0 0
 129 H    1     2.2289     4.2120   97 H    0 0 0
 129 H    1     2.4310     4.5939  107 H    0 0 0

 137 H    1     1.0868     2.0537   57 C    0 0 0
 137 H    1     1.7620     3.3297  121 H    0 0 0
 137 H    1     1.7657     3.3367  129 H    0 0 0
 137 H    1     2.1416     4.0470   73 C    0 0 0
[...]
Note: The following floating-point exceptions are signalling: IEEE_UNDERFLOW_FLAG IEEE_DENORMAL
Note: The following floating-point exceptions are signalling: IEEE_UNDERFLOW_FLAG IEEE_DENORMAL
Note: The following floating-point exceptions are signalling: IEEE_UNDERFLOW_FLAG IEEE_DENORMAL
Note: The following floating-point exceptions are signalling: IEEE_UNDERFLOW_FLAG IEEE_DENORMAL
Note: The following floating-point exceptions are signalling: IEEE_UNDERFLOW_FLAG IEEE_DENORMAL
Note: The following floating-point exceptions are signalling: IEEE_UNDERFLOW_FLAG IEEE_DENORMAL
Note: The following floating-point exceptions are signalling: IEEE_UNDERFLOW_FLAG IEEE_DENORMAL
Note: The following floating-point exceptions are signalling: IEEE_UNDERFLOW_FLAG IEEE_DENORMAL
Note: The following floating-point exceptions are signalling: IEEE_UNDERFLOW_FLAG IEEE_DENORMAL
Note: The following floating-point exceptions are signalling: IEEE_UNDERFLOW_FLAG IEEE_DENORMAL
Note: The following floating-point exceptions are signalling: IEEE_UNDERFLOW_FLAG IEEE_DENORMAL
Note: The following floating-point exceptions are signalling: IEEE_UNDERFLOW_FLAG IEEE_DENORMAL
Note: The following floating-point exceptions are signalling: IEEE_UNDERFLOW_FLAG IEEE_DENORMAL
Note: The following floating-point exceptions are signalling: IEEE_UNDERFLOW_FLAG IEEE_DENORMAL
Note: The following floating-point exceptions are signalling: IEEE_UNDERFLOW_FLAG IEEE_DENORMAL
Note: The following floating-point exceptions are signalling: IEEE_UNDERFLOW_FLAG IEEE_DENORMAL
Note: The following floating-point exceptions are signalling: IEEE_UNDERFLOW_FLAG IEEE_DENORMAL
Note: The following floating-point exceptions are signalling: IEEE_UNDERFLOW_FLAG IEEE_DENORMAL
Note: The following floating-point exceptions are signalling: IEEE_UNDERFLOW_FLAG IEEE_DENORMAL
Note: The following floating-point exceptions are signalling: IEEE_UNDERFLOW_FLAG IEEE_DENORMAL
Note: The following floating-point exceptions are signalling: IEEE_UNDERFLOW_FLAG IEEE_DENORMAL
Note: The following floating-point exceptions are signalling: IEEE_UNDERFLOW_FLAG IEEE_DENORMAL
Note: The following floating-point exceptions are signalling: IEEE_UNDERFLOW_FLAG IEEE_DENORMAL
Note: The following floating-point exceptions are signalling: IEEE_UNDERFLOW_FLAG IEEE_DENORMAL
Note: The following floating-point exceptions are signalling: IEEE_UNDERFLOW_FLAG IEEE_DENORMAL
Note: The following floating-point exceptions are signalling: IEEE_UNDERFLOW_FLAG IEEE_DENORMAL
Note: The following floating-point exceptions are signalling: IEEE_UNDERFLOW_FLAG IEEE_DENORMAL
Note: The following floating-point exceptions are signalling: IEEE_UNDERFLOW_FLAG IEEE_DENORMAL
Note: The following floating-point exceptions are signalling: IEEE_UNDERFLOW_FLAG IEEE_DENORMAL
Note: The following floating-point exceptions are signalling: IEEE_UNDERFLOW_FLAG IEEE_DENORMAL
Note: The following floating-point exceptions are signalling: IEEE_UNDERFLOW_FLAG IEEE_DENORMAL
Note: The following floating-point exceptions are signalling: IEEE_UNDERFLOW_FLAG IEEE_DENORMAL
Note: The following floating-point exceptions are signalling: IEEE_UNDERFLOW_FLAG IEEE_DENORMAL
Note: The following floating-point exceptions are signalling: IEEE_UNDERFLOW_FLAG IEEE_DENORMAL
Note: The following floating-point exceptions are signalling: IEEE_UNDERFLOW_FLAG IEEE_DENORMAL
Note: The following floating-point exceptions are signalling: IEEE_UNDERFLOW_FLAG IEEE_DENORMAL
Note: The following floating-point exceptions are signalling: IEEE_UNDERFLOW_FLAG IEEE_DENORMAL
Note: The following floating-point exceptions are signalling: IEEE_UNDERFLOW_FLAG IEEE_DENORMAL
Note: The following floating-point exceptions are signalling: IEEE_UNDERFLOW_FLAG IEEE_DENORMAL
Note: The following floating-point exceptions are signalling: IEEE_UNDERFLOW_FLAG IEEE_DENORMAL
Note: The following floating-point exceptions are signalling: IEEE_UNDERFLOW_FLAG IEEE_DENORMAL
Note: The following floating-point exceptions are signalling: IEEE_UNDERFLOW_FLAG IEEE_DENORMAL
Note: The following floating-point exceptions are signalling: IEEE_UNDERFLOW_FLAG IEEE_DENORMAL
Note: The following floating-point exceptions are signalling: IEEE_UNDERFLOW_FLAG IEEE_DENORMAL
Note: The following floating-point exceptions are signalling: IEEE_UNDERFLOW_FLAG IEEE_DENORMAL
Note: The following floating-point exceptions are signalling: IEEE_UNDERFLOW_FLAG IEEE_DENORMAL
Note: The following floating-point exceptions are signalling: IEEE_UNDERFLOW_FLAG IEEE_DENORMAL
Note: The following floating-point exceptions are signalling: IEEE_UNDERFLOW_FLAG IEEE_DENORMAL
Note: The following floating-point exceptions are signalling: IEEE_UNDERFLOW_FLAG IEEE_DENORMAL
Note: The following floating-point exceptions are signalling: IEEE_UNDERFLOW_FLAG IEEE_DENORMAL
Note: The following floating-point exceptions are signalling: IEEE_UNDERFLOW_FLAG IEEE_DENORMAL
Note: The following floating-point exceptions are signalling: IEEE_UNDERFLOW_FLAG IEEE_DENORMAL
Note: The following floating-point exceptions are signalling: IEEE_UNDERFLOW_FLAG IEEE_DENORMAL
Note: The following floating-point exceptions are signalling: IEEE_UNDERFLOW_FLAG IEEE_DENORMAL
Note: The following floating-point exceptions are signalling: IEEE_UNDERFLOW_FLAG IEEE_DENORMAL
Note: The following floating-point exceptions are signalling: IEEE_UNDERFLOW_FLAG IEEE_DENORMAL
Note: The following floating-point exceptions are signalling: IEEE_UNDERFLOW_FLAG IEEE_DENORMAL
Note: The following floating-point exceptions are signalling: IEEE_UNDERFLOW_FLAG IEEE_DENORMAL
Note: The following floating-point exceptions are signalling: IEEE_UNDERFLOW_FLAG IEEE_DENORMAL
Note: The following floating-point exceptions are signalling: IEEE_UNDERFLOW_FLAG IEEE_DENORMAL
Note: The following floating-point exceptions are signalling: IEEE_UNDERFLOW_FLAG IEEE_DENORMAL
Note: The following floating-point exceptions are signalling: IEEE_UNDERFLOW_FLAG IEEE_DENORMAL
Note: The following floating-point exceptions are signalling: IEEE_UNDERFLOW_FLAG IEEE_DENORMAL
Note: The following floating-point exceptions are signalling: IEEE_UNDERFLOW_FLAG IEEE_DENORMAL
Note: The following floating-point exceptions are signalling: IEEE_UNDERFLOW_FLAG IEEE_DENORMAL
Note: The following floating-point exceptions are signalling: IEEE_UNDERFLOW_FLAG IEEE_DENORMAL
Note: The following floating-point exceptions are signalling: IEEE_UNDERFLOW_FLAG IEEE_DENORMAL
Note: The following floating-point exceptions are signalling: IEEE_UNDERFLOW_FLAG IEEE_DENORMAL
Note: The following floating-point exceptions are signalling: IEEE_UNDERFLOW_FLAG IEEE_DENORMAL
Note: The following floating-point exceptions are signalling: IEEE_UNDERFLOW_FLAG IEEE_DENORMAL
Note: The following floating-point exceptions are signalling: IEEE_UNDERFLOW_FLAG IEEE_DENORMAL
Note: The following floating-point exceptions are signalling: IEEE_UNDERFLOW_FLAG IEEE_DENORMAL
Note: The following floating-point exceptions are signalling: IEEE_UNDERFLOW_FLAG IEEE_DENORMAL
Note: The following floating-point exceptions are signalling: IEEE_UNDERFLOW_FLAG IEEE_DENORMAL
Note: The following floating-point exceptions are signalling: IEEE_UNDERFLOW_FLAG IEEE_DENORMAL
Note: The following floating-point exceptions are signalling: IEEE_UNDERFLOW_FLAG IEEE_DENORMAL
Note: The following floating-point exceptions are signalling: IEEE_UNDERFLOW_FLAG IEEE_DENORMAL
Note: The following floating-point exceptions are signalling: IEEE_UNDERFLOW_FLAG IEEE_DENORMAL
Note: The following floating-point exceptions are signalling: IEEE_UNDERFLOW_FLAG IEEE_DENORMAL
Note: The following floating-point exceptions are signalling: IEEE_UNDERFLOW_FLAG IEEE_DENORMAL
Note: The following floating-point exceptions are signalling: IEEE_UNDERFLOW_FLAG IEEE_DENORMAL
Note: The following floating-point exceptions are signalling: IEEE_UNDERFLOW_FLAG IEEE_DENORMAL
Note: The following floating-point exceptions are signalling: IEEE_UNDERFLOW_FLAG IEEE_DENORMAL
Note: The following floating-point exceptions are signalling: IEEE_UNDERFLOW_FLAG IEEE_DENORMAL
Note: The following floating-point exceptions are signalling: IEEE_UNDERFLOW_FLAG IEEE_DENORMAL
Note: The following floating-point exceptions are signalling: IEEE_UNDERFLOW_FLAG IEEE_DENORMAL
Note: The following floating-point exceptions are signalling: IEEE_UNDERFLOW_FLAG IEEE_DENORMAL
Note: The following floating-point exceptions are signalling: IEEE_UNDERFLOW_FLAG IEEE_DENORMAL
Note: The following floating-point exceptions are signalling: IEEE_UNDERFLOW_FLAG IEEE_DENORMAL
Note: The following floating-point exceptions are signalling: IEEE_UNDERFLOW_FLAG IEEE_DENORMAL
Note: The following floating-point exceptions are signalling: IEEE_UNDERFLOW_FLAG IEEE_DENORMAL
Note: The following floating-point exceptions are signalling: IEEE_UNDERFLOW_FLAG IEEE_DENORMAL
Note: The following floating-point exceptions are signalling: IEEE_UNDERFLOW_FLAG IEEE_DENORMAL
Note: The following floating-point exceptions are signalling: IEEE_UNDERFLOW_FLAG IEEE_DENORMAL
Note: The following floating-point exceptions are signalling: IEEE_UNDERFLOW_FLAG IEEE_DENORMAL
Note: The following floating-point exceptions are signalling: IEEE_UNDERFLOW_FLAG IEEE_DENORMAL
Note: The following floating-point exceptions are signalling: IEEE_UNDERFLOW_FLAG IEEE_DENORMAL
Note: The following floating-point exceptions are signalling: IEEE_UNDERFLOW_FLAG IEEE_DENORMAL
Note: The following floating-point exceptions are signalling: IEEE_UNDERFLOW_FLAG IEEE_DENORMAL
Note: The following floating-point exceptions are signalling: IEEE_UNDERFLOW_FLAG IEEE_DENORMAL
Note: The following floating-point exceptions are signalling: IEEE_UNDERFLOW_FLAG IEEE_DENORMAL
Note: The following floating-point exceptions are signalling: IEEE_UNDERFLOW_FLAG IEEE_DENORMAL
Note: The following floating-point exceptions are signalling: IEEE_UNDERFLOW_FLAG IEEE_DENORMAL
Note: The following floating-point exceptions are signalling: IEEE_UNDERFLOW_FLAG IEEE_DENORMAL
Note: The following floating-point exceptions are signalling: IEEE_UNDERFLOW_FLAG IEEE_DENORMAL
Note: The following floating-point exceptions are signalling: IEEE_UNDERFLOW_FLAG IEEE_DENORMAL
Note: The following floating-point exceptions are signalling: IEEE_UNDERFLOW_FLAG IEEE_DENORMAL
Note: The following floating-point exceptions are signalling: IEEE_UNDERFLOW_FLAG IEEE_DENORMAL
Note: The following floating-point exceptions are signalling: IEEE_UNDERFLOW_FLAG IEEE_DENORMAL
Note: The following floating-point exceptions are signalling: IEEE_UNDERFLOW_FLAG IEEE_DENORMAL
Note: The following floating-point exceptions are signalling: IEEE_UNDERFLOW_FLAG IEEE_DENORMAL
Note: The following floating-point exceptions are signalling: IEEE_UNDERFLOW_FLAG IEEE_DENORMAL
Note: The following floating-point exceptions are signalling: IEEE_UNDERFLOW_FLAG IEEE_DENORMAL
Note: The following floating-point exceptions are signalling: IEEE_UNDERFLOW_FLAG IEEE_DENORMAL
Note: The following floating-point exceptions are signalling: IEEE_UNDERFLOW_FLAG IEEE_DENORMAL
Note: The following floating-point exceptions are signalling: IEEE_UNDERFLOW_FLAG IEEE_DENORMAL
Note: The following floating-point exceptions are signalling: IEEE_UNDERFLOW_FLAG IEEE_DENORMAL
Note: The following floating-point exceptions are signalling: IEEE_UNDERFLOW_FLAG IEEE_DENORMAL
Note: The following floating-point exceptions are signalling: IEEE_UNDERFLOW_FLAG IEEE_DENORMAL
Note: The following floating-point exceptions are signalling: IEEE_UNDERFLOW_FLAG IEEE_DENORMAL
Note: The following floating-point exceptions are signalling: IEEE_UNDERFLOW_FLAG IEEE_DENORMAL
Note: The following floating-point exceptions are signalling: IEEE_UNDERFLOW_FLAG IEEE_DENORMAL
Note: The following floating-point exceptions are signalling: IEEE_UNDERFLOW_FLAG IEEE_DENORMAL
Note: The following floating-point exceptions are signalling: IEEE_UNDERFLOW_FLAG IEEE_DENORMAL
Note: The following floating-point exceptions are signalling: IEEE_UNDERFLOW_FLAG IEEE_DENORMAL
Note: The following floating-point exceptions are signalling: IEEE_UNDERFLOW_FLAG IEEE_DENORMAL
Note: The following floating-point exceptions are signalling: IEEE_UNDERFLOW_FLAG IEEE_DENORMAL
Note: The following floating-point exceptions are signalling: IEEE_UNDERFLOW_FLAG IEEE_DENORMAL
Note: The following floating-point exceptions are signalling: IEEE_UNDERFLOW_FLAG IEEE_DENORMAL
Note: The following floating-point exceptions are signalling: IEEE_UNDERFLOW_FLAG IEEE_DENORMAL
Note: The following floating-point exceptions are signalling: IEEE_UNDERFLOW_FLAG IEEE_DENORMAL
Note: The following floating-point exceptions are signalling: IEEE_UNDERFLOW_FLAG IEEE_DENORMAL
Note: The following floating-point exceptions are signalling: IEEE_UNDERFLOW_FLAG IEEE_DENORMAL
Note: The following floating-point exceptions are signalling: IEEE_UNDERFLOW_FLAG IEEE_DENORMAL
Note: The following floating-point exceptions are signalling: IEEE_UNDERFLOW_FLAG IEEE_DENORMAL
Note: The following floating-point exceptions are signalling: IEEE_UNDERFLOW_FLAG IEEE_DENORMAL
Note: The following floating-point exceptions are signalling: IEEE_UNDERFLOW_FLAG IEEE_DENORMAL
Note: The following floating-point exceptions are signalling: IEEE_UNDERFLOW_FLAG IEEE_DENORMAL
Note: The following floating-point exceptions are signalling: IEEE_UNDERFLOW_FLAG IEEE_DENORMAL
Note: The following floating-point exceptions are signalling: IEEE_UNDERFLOW_FLAG IEEE_DENORMAL
Note: The following floating-point exceptions are signalling: IEEE_UNDERFLOW_FLAG IEEE_DENORMAL
Note: The following floating-point exceptions are signalling: IEEE_UNDERFLOW_FLAG IEEE_DENORMAL
Note: The following floating-point exceptions are signalling: IEEE_UNDERFLOW_FLAG IEEE_DENORMAL
Note: The following floating-point exceptions are signalling: IEEE_UNDERFLOW_FLAG IEEE_DENORMAL
Note: The following floating-point exceptions are signalling: IEEE_UNDERFLOW_FLAG IEEE_DENORMAL
Note: The following floating-point exceptions are signalling: IEEE_UNDERFLOW_FLAG IEEE_DENORMAL
Note: The following floating-point exceptions are signalling: IEEE_UNDERFLOW_FLAG IEEE_DENORMAL
Note: The following floating-point exceptions are signalling: IEEE_UNDERFLOW_FLAG IEEE_DENORMAL
Note: The following floating-point exceptions are signalling: IEEE_UNDERFLOW_FLAG IEEE_DENORMAL
Note: The following floating-point exceptions are signalling: IEEE_UNDERFLOW_FLAG IEEE_DENORMAL
Note: The following floating-point exceptions are signalling: IEEE_UNDERFLOW_FLAG IEEE_DENORMAL
Note: The following floating-point exceptions are signalling: IEEE_UNDERFLOW_FLAG IEEE_DENORMAL
Note: The following floating-point exceptions are signalling: IEEE_UNDERFLOW_FLAG IEEE_DENORMAL
Note: The following floating-point exceptions are signalling: IEEE_UNDERFLOW_FLAG IEEE_DENORMAL
Note: The following floating-point exceptions are signalling: IEEE_UNDERFLOW_FLAG IEEE_DENORMAL
Note: The following floating-point exceptions are signalling: IEEE_UNDERFLOW_FLAG IEEE_DENORMAL
Note: The following floating-point exceptions are signalling: IEEE_UNDERFLOW_FLAG IEEE_DENORMAL
Note: The following floating-point exceptions are signalling: IEEE_UNDERFLOW_FLAG IEEE_DENORMAL
Note: The following floating-point exceptions are signalling: IEEE_UNDERFLOW_FLAG IEEE_DENORMAL
Note: The following floating-point exceptions are signalling: IEEE_UNDERFLOW_FLAG IEEE_DENORMAL
Note: The following floating-point exceptions are signalling: IEEE_UNDERFLOW_FLAG IEEE_DENORMAL
Note: The following floating-point exceptions are signalling: IEEE_UNDERFLOW_FLAG IEEE_DENORMAL
Note: The following floating-point exceptions are signalling: IEEE_UNDERFLOW_FLAG IEEE_DENORMAL
Note: The following floating-point exceptions are signalling: IEEE_UNDERFLOW_FLAG IEEE_DENORMAL
Note: The following floating-point exceptions are signalling: IEEE_UNDERFLOW_FLAG IEEE_DENORMAL
Note: The following floating-point exceptions are signalling: IEEE_UNDERFLOW_FLAG IEEE_DENORMAL
Note: The following floating-point exceptions are signalling: IEEE_UNDERFLOW_FLAG IEEE_DENORMAL
Note: The following floating-point exceptions are signalling: IEEE_UNDERFLOW_FLAG IEEE_DENORMAL
Note: The following floating-point exceptions are signalling: IEEE_UNDERFLOW_FLAG IEEE_DENORMAL
Note: The following floating-point exceptions are signalling: IEEE_UNDERFLOW_FLAG IEEE_DENORMAL
Note: The following floating-point exceptions are signalling: IEEE_UNDERFLOW_FLAG IEEE_DENORMAL
Note: The following floating-point exceptions are signalling: IEEE_UNDERFLOW_FLAG IEEE_DENORMAL
Note: The following floating-point exceptions are signalling: IEEE_UNDERFLOW_FLAG IEEE_DENORMAL
Note: The following floating-point exceptions are signalling: IEEE_UNDERFLOW_FLAG IEEE_DENORMAL
Note: The following floating-point exceptions are signalling: IEEE_UNDERFLOW_FLAG IEEE_DENORMAL
Note: The following floating-point exceptions are signalling: IEEE_UNDERFLOW_FLAG IEEE_DENORMAL
Note: The following floating-point exceptions are signalling: IEEE_UNDERFLOW_FLAG IEEE_DENORMAL
Note: The following floating-point exceptions are signalling: IEEE_UNDERFLOW_FLAG IEEE_DENORMAL
Note: The following floating-point exceptions are signalling: IEEE_UNDERFLOW_FLAG IEEE_DENORMAL
Note: The following floating-point exceptions are signalling: IEEE_UNDERFLOW_FLAG IEEE_DENORMAL
Note: The following floating-point exceptions are signalling: IEEE_UNDERFLOW_FLAG IEEE_DENORMAL
Note: The following floating-point exceptions are signalling: IEEE_UNDERFLOW_FLAG IEEE_DENORMAL
Note: The following floating-point exceptions are signalling: IEEE_UNDERFLOW_FLAG IEEE_DENORMAL
Note: The following floating-point exceptions are signalling: IEEE_UNDERFLOW_FLAG IEEE_DENORMAL
Note: The following floating-point exceptions are signalling: IEEE_UNDERFLOW_FLAG IEEE_DENORMAL
Note: The following floating-point exceptions are signalling: IEEE_UNDERFLOW_FLAG IEEE_DENORMAL
Note: The following floating-point exceptions are signalling: IEEE_UNDERFLOW_FLAG IEEE_DENORMAL
Note: The following floating-point exceptions are signalling: IEEE_UNDERFLOW_FLAG IEEE_DENORMAL
Note: The following floating-point exceptions are signalling: IEEE_UNDERFLOW_FLAG IEEE_DENORMAL
Note: The following floating-point exceptions are signalling: IEEE_UNDERFLOW_FLAG IEEE_DENORMAL
Note: The following floating-point exceptions are signalling: IEEE_UNDERFLOW_FLAG IEEE_DENORMAL
Note: The following floating-point exceptions are signalling: IEEE_UNDERFLOW_FLAG IEEE_DENORMAL
Note: The following floating-point exceptions are signalling: IEEE_UNDERFLOW_FLAG IEEE_DENORMAL
Note: The following floating-point exceptions are signalling: IEEE_UNDERFLOW_FLAG IEEE_DENORMAL
Note: The following floating-point exceptions are signalling: IEEE_UNDERFLOW_FLAG IEEE_DENORMAL
Note: The following floating-point exceptions are signalling: IEEE_UNDERFLOW_FLAG IEEE_DENORMAL
Note: The following floating-point exceptions are signalling: IEEE_UNDERFLOW_FLAG IEEE_DENORMAL
Note: The following floating-point exceptions are signalling: IEEE_UNDERFLOW_FLAG IEEE_DENORMAL
Note: The following floating-point exceptions are signalling: IEEE_UNDERFLOW_FLAG IEEE_DENORMAL
Note: The following floating-point exceptions are signalling: IEEE_UNDERFLOW_FLAG IEEE_DENORMAL
Note: The following floating-point exceptions are signalling: IEEE_UNDERFLOW_FLAG IEEE_DENORMAL
Note: The following floating-point exceptions are signalling: IEEE_UNDERFLOW_FLAG IEEE_DENORMAL
Note: The following floating-point exceptions are signalling: IEEE_UNDERFLOW_FLAG IEEE_DENORMAL
Note: The following floating-point exceptions are signalling: IEEE_UNDERFLOW_FLAG IEEE_DENORMAL
Note: The following floating-point exceptions are signalling: IEEE_UNDERFLOW_FLAG IEEE_DENORMAL
Note: The following floating-point exceptions are signalling: IEEE_UNDERFLOW_FLAG IEEE_DENORMAL
Note: The following floating-point exceptions are signalling: IEEE_UNDERFLOW_FLAG IEEE_DENORMAL
Note: The following floating-point exceptions are signalling: IEEE_UNDERFLOW_FLAG IEEE_DENORMAL
