Lmod has detected the following error: The following module(s) are unknown:
"epcc-job-env"

Please check the spelling or version number. Also try "module spider ..."
It is also possible your cache file is out-of-date; it may help to try:
  $ module --ignore-cache load "epcc-job-env"

Also make sure that all modulefiles written in TCL start with the string
#%Module




Warning: You have enabled access to software packages installed
by external parties on ARCHER2 or those that are not fully-supported.
The ARCHER2 CSE service does not test these packages. The service desk
will make reasonable efforts to assist with questions on the use of
these packages but some issues may not be able to be resolved by the
service and they may direct you to seek help from external parties.


         512 PROCESSORS WORKING

         
 *******************************************************************************
 *                                                                             *
 *                               CRYSTAL17                                     *
 *                      public : 1.0.2 - March 1st, 2018 STFC/Archer2 build    *
 *                       HTTP://WWW.CRYSTAL.UNITO.IT                           *
 *                                                                             *
 *                              MAIN AUTHORS                                   *
 *                                                                             *
 *  R. DOVESI(1,11), V.R. SAUNDERS(2), C. ROETTI(1,11), R. ORLANDO(1,11),      *
 *  C.M. ZICOVICH-WILSON(1,3), F. PASCALE(4), B. CIVALLERI(1,11),              *
 *  K. DOLL(5), N.M. HARRISON(2,6), I.J. BUSH(7), Ph. D'ARCO(8),               *
 *  M. LLUNELL(9), M. CAUSA'(10), Y. NOEL(8), L. MASCHIO(1,11), A. ERBA(1,11)  *
 *  M. RE'RAT(14), S. CASASSA(1,11)                                            *
 *                                                                             *
 *        CONTRIBUTIONS TO THE CODE HAVE ALSO BEEN GIVEN BY                    *
 *                                                                             *
 *  M. FERRABONE(1,11), M. DE LA PIERRE(1,11), M. FERRERO(1,11),               *
 *  J. BAIMA(1,11), E. ALBANESE(1,11), M.F. PEINTINGER(12), R. BAST(13),       *
 *  B. KIRTMAN(15), V. LACIVITA(1,11), R. DEMICHELIS(1,16)                     *
 *  G. BRANDEBURG(17), S. SALUSTRO(1,11), G. SANSONE(1,11)                     *
 *  M.T. RUGGIERO(18)                                                          *
 *                                                                             *
 * (1) THEORETICAL CHEMISTRY GROUP - UNIVERSITA' DI TORINO - TORINO (ITALY)    *
 * (2) COMPUTATIONAL SCIENCE & ENGINEERING DEPARTMENT - STFC DARESBURY (UK)    *
 * (3) UNIVERSIDAD AUTONOMA DEL ESTADO DE MORELOS - CUERNAVACA (MEXICO)        *
 * (4) UNIVERSITE' DE LORRAINE - NANCY (FRANCE)                                *
 * (5) UNIVERSITAET STUTTGART- STUTTGART (GERMANY)                             *
 * (6) IMPERIAL COLLEGE - LONDON (UK)                                          *
 * (7) OXFORD E-RESEARCH CENTRE - OXFORD (UK)                                  *
 * (8) UPMC - SORBONNE UNIVERSITES - PARIS (FRANCE)                            *
 * (9) UNIVERSIDAD DE BARCELONA - BARCELONA (SPAIN)                            *
 *(10) UNIVERSITA' DI NAPOLI "FEDERICO II" - NAPOLI (ITALY)                    *
 *(11) NIS - NANOSTRUCTURED INTERFACES AND SURFACES - TORINO (ITALY)           *
 *(12) MPI FUER CHEMISCHE ENERGIEKONVERSION - MUELHEIM AN DER RUHR (GERMANY)   *
 *(13) UNIVERSITY OF TROMSO - TROMSO (NORWAY)                                  *
 *(14) UNIVERSITE' DE PAU ET DES PAYS DE L'ADOUR - PAU (FRANCE)                *
 *(15) UNIVERSITY OF CALIFORNIA SANTA BARBARA - SANTA BARBARA (USA)            *
 *(16) CURTIN UNIVERSITY - PERTH (AUSTRALIA)                                   *
 *(17) UNIVERSITY COLLEGE LONDON - LONDON (UK)                                 *
 *(18) CAMBRIDGE UNIVERSITY - CAMBRIDGE (UK)                                   *
 *                                                                             *
 *******************************************************************************
 EEEEEEEEEE STARTING  DATE 07 03 2022 TIME 21:59:44.9
 F2 vol stepp2 freq - PBEh-3c                                                    

 GEOMETRY INPUT FROM EXTERNAL FILE (FORTRAN UNIT 34)
 3D - CRYSTAL 

 *******************************************************************************
 LATTICE PARAMETERS  (ANGSTROMS AND DEGREES) - PRIMITIVE CELL
       A          B          C        ALPHA      BETA     GAMMA        VOLUME
   11.83348    7.27269   17.23306    90.00000  90.00000  90.00000   1483.098952

 NUMBER OF IRREDUCIBLE ATOMS IN THE CELL:   20

 CARTESIAN COORDINATES (ANGSTROM) - IRREDUCIBLE ATOMS AND SYMMETRY RELATED

 AT.IRR.  AT  AT.N.          X                   Y                   Z
     1     1     8   -2.792750197991E+00  1.792662536398E+00 -6.378853599945E+00
     1     2     8   -3.123991527650E+00 -1.792662536398E+00  2.237676617118E+00
     1     3     8    3.123991527650E+00  1.843682740676E+00  6.378853599945E+00
     1     4     8    2.792750197991E+00 -1.843682740676E+00 -2.237676617118E+00
     1     5     8    2.792750197991E+00 -1.792662536398E+00  6.378853599945E+00
     1     6     8    3.123991527650E+00  1.792662536398E+00 -2.237676617118E+00
     1     7     8   -3.123991527650E+00 -1.843682740676E+00 -6.378853599945E+00
     1     8     8   -2.792750197991E+00  1.843682740676E+00  2.237676617118E+00
     9     9     8   -1.266093668762E+00  1.988955048791E+00  5.209786368000E-03
     9    10     8   -4.650648056880E+00 -1.988955048791E+00 -8.611320430695E+00
     9    11     8    4.650648056880E+00  1.647390228283E+00 -5.209786368000E-03
     9    12     8    1.266093668762E+00 -1.647390228283E+00  8.611320430695E+00
     9    13     8    1.266093668762E+00 -1.988955048791E+00 -5.209786368000E-03
     9    14     8    4.650648056880E+00  1.988955048791E+00  8.611320430695E+00
     9    15     8   -4.650648056880E+00 -1.647390228283E+00  5.209786368000E-03
     9    16     8   -1.266093668762E+00  1.647390228283E+00 -8.611320430695E+00
    17    17     7    1.666008419980E-01  1.511550129298E+00 -1.682724392677E+00
    17    18     7    5.750140883643E+00 -1.511550129298E+00  6.933805824386E+00
    17    19     7   -5.750140883643E+00  2.124795147776E+00  1.682724392677E+00
    17    20     7   -1.666008419980E-01 -2.124795147776E+00 -6.933805824386E+00
    17    21     7   -1.666008419980E-01 -1.511550129298E+00  1.682724392677E+00
    17    22     7   -5.750140883643E+00  1.511550129298E+00 -6.933805824386E+00
    17    23     7    5.750140883643E+00 -2.124795147776E+00 -1.682724392677E+00
    17    24     7    1.666008419980E-01  2.124795147776E+00  6.933805824386E+00
    25    25     6   -2.098358857923E+00  1.682209293409E+00 -5.227651634191E+00
    25    26     6   -3.818382867719E+00 -1.682209293409E+00  3.388878582872E+00
    25    27     6    3.818382867719E+00  1.954135983665E+00  5.227651634191E+00
    25    28     6    2.098358857923E+00 -1.954135983665E+00 -3.388878582872E+00
    25    29     6    2.098358857923E+00 -1.682209293409E+00  5.227651634191E+00
    25    30     6    3.818382867719E+00  1.682209293409E+00 -3.388878582872E+00
    25    31     6   -3.818382867719E+00 -1.954135983665E+00 -5.227651634191E+00
    25    32     6   -2.098358857923E+00  1.954135983665E+00  3.388878582872E+00
    33    33     6   -6.678243966340E-01  1.551472403953E+00 -2.816318377326E+00
    33    34     6   -5.248917329007E+00 -1.551472403953E+00  5.800211839737E+00
    33    35     6    5.248917329007E+00  2.084872873121E+00  2.816318377326E+00
    33    36     6    6.678243966340E-01 -2.084872873121E+00 -5.800211839737E+00
    33    37     6    6.678243966340E-01 -1.551472403953E+00  2.816318377326E+00
    33    38     6    5.248917329007E+00  1.551472403953E+00 -5.800211839737E+00
    33    39     6   -5.248917329007E+00 -2.084872873121E+00 -2.816318377326E+00
    33    40     6   -6.678243966340E-01  2.084872873121E+00  5.800211839737E+00
    41    41     6   -1.932036002701E+00  2.135069857798E+00 -2.859465506258E+00
    41    42     6   -3.984705722940E+00 -2.135069857798E+00  5.757064710805E+00
    41    43     6    3.984705722940E+00  1.501275419276E+00  2.859465506258E+00
    41    44     6    1.932036002701E+00 -1.501275419276E+00 -5.757064710805E+00
    41    45     6    1.932036002701E+00 -2.135069857798E+00  2.859465506258E+00
    41    46     6    3.984705722940E+00  2.135069857798E+00 -5.757064710805E+00
    41    47     6   -3.984705722940E+00 -1.501275419276E+00 -2.859465506258E+00
    41    48     6   -1.932036002701E+00  1.501275419276E+00  5.757064710805E+00
    49    49     6   -2.636485310887E+00  2.197553833727E+00 -4.053657537281E+00
    49    50     6   -3.280256414754E+00 -2.197553833727E+00  4.562872679782E+00
    49    51     6    3.280256414754E+00  1.438791443347E+00  4.053657537281E+00
    49    52     6    2.636485310887E+00 -1.438791443347E+00 -4.562872679782E+00
    49    53     6    2.636485310887E+00 -2.197553833727E+00  4.053657537281E+00
    49    54     6    3.280256414754E+00  2.197553833727E+00 -4.562872679782E+00
    49    55     6   -3.280256414754E+00 -1.438791443347E+00 -4.053657537281E+00
    49    56     6   -2.636485310887E+00  1.438791443347E+00  4.562872679782E+00
    57    57     6    1.041581629615E+00  1.594390832059E+00  5.459922159240E-01
    57    58     6    4.875160096027E+00 -1.594390832059E+00 -8.070538001139E+00
    57    59     6   -4.875160096027E+00  2.041954445015E+00 -5.459922159240E-01
    57    60     6   -1.041581629615E+00 -2.041954445015E+00  8.070538001139E+00
    57    61     6   -1.041581629615E+00 -1.594390832059E+00 -5.459922159240E-01
    57    62     6   -4.875160096027E+00  1.594390832059E+00  8.070538001139E+00
    57    63     6    4.875160096027E+00 -2.041954445015E+00  5.459922159240E-01
    57    64     6    1.041581629615E+00  2.041954445015E+00 -8.070538001139E+00
    65    65     6   -8.562492959280E-01  1.057035658704E+00 -5.173410257062E+00
    65    66     6   -5.060492429714E+00 -1.057035658704E+00  3.443119960001E+00
    65    67     6    5.060492429714E+00  2.579309618369E+00  5.173410257062E+00
    65    68     6    8.562492959280E-01 -2.579309618369E+00 -3.443119960001E+00
    65    69     6    8.562492959280E-01 -1.057035658704E+00  5.173410257062E+00
    65    70     6    5.060492429714E+00  1.057035658704E+00 -3.443119960001E+00
    65    71     6   -5.060492429714E+00 -2.579309618369E+00 -5.173410257062E+00
    65    72     6   -8.562492959280E-01  2.579309618369E+00  3.443119960001E+00
    73    73     6   -1.335795078380E-01  1.710395759745E+00 -3.894319955620E-01
    73    74     6   -5.783162217804E+00 -1.710395759745E+00  8.227098221501E+00
    73    75     6    5.783162217804E+00  1.925949517329E+00  3.894319955620E-01
    73    76     6    1.335795078380E-01 -1.925949517329E+00 -8.227098221501E+00
    73    77     6    1.335795078380E-01 -1.710395759745E+00  3.894319955620E-01
    73    78     6    5.783162217804E+00  1.710395759745E+00 -8.227098221501E+00
    73    79     6   -5.783162217804E+00 -1.925949517329E+00 -3.894319955620E-01
    73    80     6   -1.335795078380E-01  1.925949517329E+00  8.227098221501E+00
    81    81     6   -1.525886020070E-01  9.979262429300E-01 -3.985866357809E+00
    81    82     6   -5.764153123635E+00 -9.979262429300E-01  4.630663859254E+00
    81    83     6    5.764153123635E+00  2.638419034144E+00  3.985866357809E+00
    81    84     6    1.525886020070E-01 -2.638419034144E+00 -4.630663859254E+00
    81    85     6    1.525886020070E-01 -9.979262429300E-01  3.985866357809E+00
    81    86     6    5.764153123635E+00  9.979262429300E-01 -4.630663859254E+00
    81    87     6   -5.764153123635E+00 -2.638419034144E+00 -3.985866357809E+00
    81    88     6   -1.525886020070E-01  2.638419034144E+00  4.630663859254E+00
    89    89     1   -2.200448940234E+00  1.667740331062E+00 -7.151507736810E+00
    89    90     1   -3.716292785408E+00 -1.667740331062E+00  1.465022480253E+00
    89    91     1    3.716292785408E+00  1.968604946012E+00  7.151507736810E+00
    89    92     1    2.200448940234E+00 -1.968604946012E+00 -1.465022480253E+00
    89    93     1    2.200448940234E+00 -1.667740331062E+00  7.151507736810E+00
    89    94     1    3.716292785408E+00  1.667740331062E+00 -1.465022480253E+00
    89    95     1   -3.716292785408E+00 -1.968604946012E+00 -7.151507736810E+00
    89    96     1   -2.200448940234E+00  1.968604946012E+00  1.465022480253E+00
    97    97     1    1.150068799467E+00  1.372273907200E+00 -1.892529777901E+00
    97    98     1    4.766672926175E+00 -1.372273907200E+00  6.724000439162E+00
    97    99     1   -4.766672926175E+00  2.264071369874E+00  1.892529777901E+00
    97   100     1   -1.150068799467E+00 -2.264071369874E+00 -6.724000439162E+00
    97   101     1   -1.150068799467E+00 -1.372273907200E+00  1.892529777901E+00
    97   102     1   -4.766672926175E+00  1.372273907200E+00 -6.724000439162E+00
    97   103     1    4.766672926175E+00 -2.264071369874E+00 -1.892529777901E+00
    97   104     1    1.150068799467E+00  2.264071369874E+00  6.724000439162E+00
   105   105     1   -2.373143418102E+00  2.569984469074E+00 -1.978008657088E+00
   105   106     1   -3.543598307539E+00 -2.569984469074E+00  6.638521559975E+00
   105   107     1    3.543598307539E+00  1.066360808000E+00  1.978008657088E+00
   105   108     1    2.373143418102E+00 -1.066360808000E+00 -6.638521559975E+00
   105   109     1    2.373143418102E+00 -2.569984469074E+00  1.978008657088E+00
   105   110     1    3.543598307539E+00  2.569984469074E+00 -6.638521559975E+00
   105   111     1   -3.543598307539E+00 -1.066360808000E+00 -1.978008657088E+00
   105   112     1   -2.373143418102E+00  1.066360808000E+00  6.638521559975E+00
   113   113     1   -3.606468413391E+00  2.678011157951E+00 -4.070061963311E+00
   113   114     1   -2.310273312250E+00 -2.678011157951E+00  4.546468253752E+00
   113   115     1    2.310273312250E+00  9.583341191230E-01  4.070061963311E+00
   113   116     1    3.606468413391E+00 -9.583341191230E-01 -4.546468253752E+00
   113   117     1    3.606468413391E+00 -2.678011157951E+00  4.070061963311E+00
   113   118     1    2.310273312250E+00  2.678011157951E+00 -4.546468253752E+00
   113   119     1   -2.310273312250E+00 -9.583341191230E-01 -4.070061963311E+00
   113   120     1   -3.606468413391E+00  9.583341191230E-01  4.546468253752E+00
   121   121     1    1.514951349126E+00  2.571475769702E+00  6.586763436420E-01
   121   122     1    4.401790376516E+00 -2.571475769702E+00 -7.957853873421E+00
   121   123     1   -4.401790376516E+00  1.064869507372E+00 -6.586763436420E-01
   121   124     1   -1.514951349126E+00 -1.064869507372E+00  7.957853873421E+00
   121   125     1   -1.514951349126E+00 -2.571475769702E+00 -6.586763436420E-01
   121   126     1   -4.401790376516E+00  2.571475769702E+00  7.957853873421E+00
   121   127     1    4.401790376516E+00 -1.064869507372E+00  6.586763436420E-01
   121   128     1    1.514951349126E+00  1.064869507372E+00 -7.957853873421E+00
   129   129     1    1.797513619296E+00  8.997548758950E-01  1.856910734640E-01
   129   130     1    4.119228106345E+00 -8.997548758950E-01 -8.430839143599E+00
   129   131     1   -4.119228106345E+00  2.736590401179E+00 -1.856910734640E-01
   129   132     1   -1.797513619296E+00 -2.736590401179E+00  8.430839143599E+00
   129   133     1   -1.797513619296E+00 -8.997548758950E-01 -1.856910734640E-01
   129   134     1   -4.119228106345E+00  8.997548758950E-01  8.430839143599E+00
   129   135     1    4.119228106345E+00 -2.736590401179E+00  1.856910734640E-01
   129   136     1    1.797513619296E+00  2.736590401179E+00 -8.430839143599E+00
   137   137     1    7.105366800950E-01  1.266908665842E+00  1.528276493122E+00
   137   138     1    5.206205045547E+00 -1.266908665842E+00 -7.088253723941E+00
   137   139     1   -5.206205045547E+00  2.369436611232E+00 -1.528276493122E+00
   137   140     1   -7.105366800950E-01 -2.369436611232E+00  7.088253723941E+00
   137   141     1   -7.105366800950E-01 -1.266908665842E+00 -1.528276493122E+00
   137   142     1   -5.206205045547E+00  1.266908665842E+00  7.088253723941E+00
   137   143     1    5.206205045547E+00 -2.369436611232E+00  1.528276493122E+00
   137   144     1    7.105366800950E-01  2.369436611232E+00 -7.088253723941E+00
   145   145     1   -4.351381810670E-01  5.971870786970E-01 -6.056886715107E+00
   145   146     1   -5.481603544575E+00 -5.971870786970E-01  2.559643501956E+00
   145   147     1    5.481603544575E+00  3.039158198377E+00  6.056886715107E+00
   145   148     1    4.351381810670E-01 -3.039158198377E+00 -2.559643501956E+00
   145   149     1    4.351381810670E-01 -5.971870786970E-01  6.056886715107E+00
   145   150     1    5.481603544575E+00  5.971870786970E-01 -2.559643501956E+00
   145   151     1   -5.481603544575E+00 -3.039158198377E+00 -6.056886715107E+00
   145   152     1   -4.351381810670E-01  3.039158198377E+00  2.559643501956E+00
   153   153     1    8.143034653350E-01  5.087628309190E-01 -3.980028737864E+00
   153   154     1    5.102438260307E+00 -5.087628309190E-01  4.636501479199E+00
   153   155     1   -5.102438260307E+00  3.127582446155E+00  3.980028737864E+00
   153   156     1   -8.143034653350E-01 -3.127582446155E+00 -4.636501479199E+00
   153   157     1   -8.143034653350E-01 -5.087628309190E-01  3.980028737864E+00
   153   158     1   -5.102438260307E+00  5.087628309190E-01 -4.636501479199E+00
   153   159     1    5.102438260307E+00 -3.127582446155E+00 -3.980028737864E+00
   153   160     1    8.143034653350E-01  3.127582446155E+00  4.636501479199E+00

 SPACE  GROUP  N.                     :   61
 NUMBER OF SYMMETRY OPERATORS         :    8
 *******************************************************************************
 LATTICE PARAMETERS (ANGSTROMS AND DEGREES) - BOHR = 0.5291772083 ANGSTROM
 PRIMITIVE CELL - CENTRING CODE 1/0 VOLUME=  1483.098952 - DENSITY  1.353 g/cm^3
         A              B              C           ALPHA      BETA       GAMMA 
    11.83348345     7.27269055    17.23306043    90.000000  90.000000  90.000000
 *******************************************************************************
 ATOMS IN THE ASYMMETRIC UNIT   20 - ATOMS IN THE UNIT CELL:  160
     ATOM                 X/A                 Y/B                 Z/C    
 *******************************************************************************
      1 T   8 O    -2.360040650316E-01  2.464923432463E-01 -3.701521052710E-01
      2 F   8 O    -2.639959349676E-01 -2.464923432463E-01  1.298478947297E-01
      3 F   8 O     2.639959349676E-01  2.535076567535E-01  3.701521052710E-01
      4 F   8 O     2.360040650316E-01 -2.535076567535E-01 -1.298478947297E-01
      5 F   8 O     2.360040650316E-01 -2.464923432463E-01  3.701521052710E-01
      6 F   8 O     2.639959349676E-01  2.464923432463E-01 -1.298478947297E-01
      7 F   8 O    -2.639959349676E-01 -2.535076567535E-01 -3.701521052710E-01
      8 F   8 O    -2.360040650316E-01  2.535076567535E-01  1.298478947297E-01
      9 T   8 O    -1.069924738538E-01  2.734826999694E-01  3.023134740299E-04
     10 F   8 O    -3.930075261456E-01 -2.734826999694E-01 -4.996976865267E-01
     11 F   8 O     3.930075261456E-01  2.265173000304E-01 -3.023134740299E-04
     12 F   8 O     1.069924738538E-01 -2.265173000304E-01  4.996976865267E-01
     13 F   8 O     1.069924738538E-01 -2.734826999694E-01 -3.023134740299E-04
     14 F   8 O     3.930075261456E-01  2.734826999694E-01  4.996976865267E-01
     15 F   8 O    -3.930075261456E-01 -2.265173000304E-01  3.023134740299E-04
     16 F   8 O    -1.069924738538E-01  2.265173000304E-01 -4.996976865267E-01
     17 T   7 N     1.407876579062E-02  2.078391921179E-01 -9.764512804396E-02
     18 F   7 N     4.859212342086E-01 -2.078391921179E-01  4.023548719568E-01
     19 F   7 N    -4.859212342086E-01  2.921608078820E-01  9.764512804396E-02
     20 F   7 N    -1.407876579062E-02 -2.921608078820E-01 -4.023548719568E-01
     21 F   7 N    -1.407876579062E-02 -2.078391921179E-01  9.764512804396E-02
     22 F   7 N    -4.859212342086E-01  2.078391921179E-01 -4.023548719568E-01
     23 F   7 N     4.859212342086E-01 -2.921608078820E-01 -9.764512804396E-02
     24 F   7 N     1.407876579062E-02  2.921608078820E-01  4.023548719568E-01
     25 T   6 C    -1.773238511347E-01  2.313049456572E-01 -3.033501596644E-01
     26 F   6 C    -3.226761488646E-01 -2.313049456572E-01  1.966498403363E-01
     27 F   6 C     3.226761488646E-01  2.686950543427E-01  3.033501596644E-01
     28 F   6 C     1.773238511347E-01 -2.686950543427E-01 -1.966498403363E-01
     29 F   6 C     1.773238511347E-01 -2.313049456572E-01  3.033501596644E-01
     30 F   6 C     3.226761488646E-01  2.313049456572E-01 -1.966498403363E-01
     31 F   6 C    -3.226761488646E-01 -2.686950543427E-01 -3.033501596644E-01
     32 F   6 C    -1.773238511347E-01  2.686950543427E-01  1.966498403363E-01
     33 T   6 C    -5.643514856656E-02  2.133285325976E-01 -1.634253177545E-01
     34 F   6 C    -4.435648514327E-01 -2.133285325976E-01  3.365746822462E-01
     35 F   6 C     4.435648514327E-01  2.866714674023E-01  1.634253177545E-01
     36 F   6 C     5.643514856656E-02 -2.866714674023E-01 -3.365746822462E-01
     37 F   6 C     5.643514856656E-02 -2.133285325976E-01  1.634253177545E-01
     38 F   6 C     4.435648514327E-01  2.133285325976E-01 -3.365746822462E-01
     39 F   6 C    -4.435648514327E-01 -2.866714674023E-01 -1.634253177545E-01
     40 F   6 C    -5.643514856656E-02  2.866714674023E-01  3.365746822462E-01
     41 T   6 C    -1.632685768863E-01  2.935735876428E-01 -1.659290592749E-01
     42 F   6 C    -3.367314231130E-01 -2.935735876428E-01  3.340709407258E-01
     43 F   6 C     3.367314231130E-01  2.064264123570E-01  1.659290592749E-01
     44 F   6 C     1.632685768863E-01 -2.064264123570E-01 -3.340709407258E-01
     45 F   6 C     1.632685768863E-01 -2.935735876428E-01  1.659290592749E-01
     46 F   6 C     3.367314231130E-01  2.935735876428E-01 -3.340709407258E-01
     47 F   6 C    -3.367314231130E-01 -2.064264123570E-01 -1.659290592749E-01
     48 F   6 C    -1.632685768863E-01  2.064264123570E-01  3.340709407258E-01
     49 T   6 C    -2.227987491373E-01  3.021651777103E-01 -2.352256323119E-01
     50 F   6 C    -2.772012508619E-01 -3.021651777103E-01  2.647743676888E-01
     51 F   6 C     2.772012508619E-01  1.978348222895E-01  2.352256323119E-01
     52 F   6 C     2.227987491373E-01 -1.978348222895E-01 -2.647743676888E-01
     53 F   6 C     2.227987491373E-01 -3.021651777103E-01  2.352256323119E-01
     54 F   6 C     2.772012508619E-01  3.021651777103E-01 -2.647743676888E-01
     55 F   6 C    -2.772012508619E-01 -1.978348222895E-01 -2.352256323119E-01
     56 F   6 C    -2.227987491373E-01  1.978348222895E-01  2.647743676888E-01
     57 T   6 C     8.801986616211E-02  2.192298462567E-01  3.168283532759E-02
     58 F   6 C     4.119801338372E-01 -2.192298462567E-01 -4.683171646732E-01
     59 F   6 C    -4.119801338372E-01  2.807701537431E-01 -3.168283532759E-02
     60 F   6 C    -8.801986616211E-02 -2.807701537431E-01  4.683171646732E-01
     61 F   6 C    -8.801986616211E-02 -2.192298462567E-01 -3.168283532759E-02
     62 F   6 C    -4.119801338372E-01  2.192298462567E-01  4.683171646732E-01
     63 F   6 C     4.119801338372E-01 -2.807701537431E-01  3.168283532759E-02
     64 F   6 C     8.801986616211E-02  2.807701537431E-01 -4.683171646732E-01
     65 T   6 C    -7.235817749286E-02  1.453431368809E-01 -3.002026411296E-01
     66 F   6 C    -4.276418225065E-01 -1.453431368809E-01  1.997973588712E-01
     67 F   6 C     4.276418225065E-01  3.546568631189E-01  3.002026411296E-01
     68 F   6 C     7.235817749286E-02 -3.546568631189E-01 -1.997973588712E-01
     69 F   6 C     7.235817749286E-02 -1.453431368809E-01  3.002026411296E-01
     70 F   6 C     4.276418225065E-01  1.453431368809E-01 -1.997973588712E-01
     71 F   6 C    -4.276418225065E-01 -3.546568631189E-01 -3.002026411296E-01
     72 F   6 C    -7.235817749286E-02  3.546568631189E-01  1.997973588712E-01
     73 T   6 C    -1.128826590984E-02  2.351806043458E-01 -2.259795914087E-02
     74 F   6 C    -4.887117340895E-01 -2.351806043458E-01  4.774020408599E-01
     75 F   6 C     4.887117340895E-01  2.648193956541E-01  2.259795914087E-02
     76 F   6 C     1.128826590984E-02 -2.648193956541E-01 -4.774020408599E-01
     77 F   6 C     1.128826590984E-02 -2.351806043458E-01  2.259795914087E-02
     78 F   6 C     4.887117340895E-01  2.351806043458E-01 -4.774020408599E-01
     79 F   6 C    -4.887117340895E-01 -2.648193956541E-01 -2.259795914087E-02
     80 F   6 C    -1.128826590984E-02  2.648193956541E-01  4.774020408599E-01
     81 T   6 C    -1.289464785538E-02  1.372155511774E-01 -2.312918458710E-01
     82 F   6 C    -4.871053521439E-01 -1.372155511774E-01  2.687081541298E-01
     83 F   6 C     4.871053521439E-01  3.627844488225E-01  2.312918458710E-01
     84 F   6 C     1.289464785538E-02 -3.627844488225E-01 -2.687081541298E-01
     85 F   6 C     1.289464785538E-02 -1.372155511774E-01  2.312918458710E-01
     86 F   6 C     4.871053521439E-01  1.372155511774E-01 -2.687081541298E-01
     87 F   6 C    -4.871053521439E-01 -3.627844488225E-01 -2.312918458710E-01
     88 F   6 C    -1.289464785538E-02  3.627844488225E-01  2.687081541298E-01
     89 T   1 H    -1.859510725890E-01  2.293154532899E-01 -4.149876781410E-01
     90 F   1 H    -3.140489274103E-01 -2.293154532899E-01  8.501232185979E-02
     91 F   1 H     3.140489274103E-01  2.706845467100E-01  4.149876781410E-01
     92 F   1 H     1.859510725890E-01 -2.706845467100E-01 -8.501232185979E-02
     93 F   1 H     1.859510725890E-01 -2.293154532899E-01  4.149876781410E-01
     94 F   1 H     3.140489274103E-01  2.293154532899E-01 -8.501232185979E-02
     95 F   1 H    -3.140489274103E-01 -2.706845467100E-01 -4.149876781410E-01
     96 F   1 H    -1.859510725890E-01  2.706845467100E-01  8.501232185979E-02
     97 T   1 H     9.718767970565E-02  1.886886148919E-01 -1.098197145619E-01
     98 F   1 H     4.028123202937E-01 -1.886886148919E-01  3.901802854388E-01
     99 F   1 H    -4.028123202937E-01  3.113113851080E-01  1.098197145619E-01
    100 F   1 H    -9.718767970565E-02 -3.113113851080E-01 -3.901802854388E-01
    101 F   1 H    -9.718767970565E-02 -1.886886148919E-01  1.098197145619E-01
    102 F   1 H    -4.028123202937E-01  1.886886148919E-01 -3.901802854388E-01
    103 F   1 H     4.028123202937E-01 -3.113113851080E-01 -1.098197145619E-01
    104 F   1 H     9.718767970565E-02  3.113113851080E-01  3.901802854388E-01
    105 T   1 H    -2.005447869910E-01  3.533746486171E-01 -1.147798828103E-01
    106 F   1 H    -2.994552130083E-01 -3.533746486171E-01  3.852201171905E-01
    107 F   1 H     2.994552130083E-01  1.466253513827E-01  1.147798828103E-01
    108 F   1 H     2.005447869910E-01 -1.466253513827E-01 -3.852201171905E-01
    109 F   1 H     2.005447869910E-01 -3.533746486171E-01  1.147798828103E-01
    110 F   1 H     2.994552130083E-01  3.533746486171E-01 -3.852201171905E-01
    111 F   1 H    -2.994552130083E-01 -1.466253513827E-01 -1.147798828103E-01
    112 F   1 H    -2.005447869910E-01  1.466253513827E-01  3.852201171905E-01
    113 T   1 H    -3.047681123004E-01  3.682283933314E-01 -2.361775483162E-01
    114 F   1 H    -1.952318876988E-01 -3.682283933314E-01  2.638224516845E-01
    115 F   1 H     1.952318876988E-01  1.317716066685E-01  2.361775483162E-01
    116 F   1 H     3.047681123004E-01 -1.317716066685E-01 -2.638224516845E-01
    117 F   1 H     3.047681123004E-01 -3.682283933314E-01  2.361775483162E-01
    118 F   1 H     1.952318876988E-01  3.682283933314E-01 -2.638224516845E-01
    119 F   1 H    -1.952318876988E-01 -1.317716066685E-01 -2.361775483162E-01
    120 F   1 H    -3.047681123004E-01  1.317716066685E-01  2.638224516845E-01
    121 T   1 H     1.280224335768E-01  3.535797034888E-01  3.822166968896E-02
    122 F   1 H     3.719775664225E-01 -3.535797034888E-01 -4.617783303118E-01
    123 F   1 H    -3.719775664225E-01  1.464202965111E-01 -3.822166968896E-02
    124 F   1 H    -1.280224335768E-01 -1.464202965111E-01  4.617783303118E-01
    125 F   1 H    -1.280224335768E-01 -3.535797034888E-01 -3.822166968896E-02
    126 F   1 H    -3.719775664225E-01  3.535797034888E-01  4.617783303118E-01
    127 F   1 H     3.719775664225E-01 -1.464202965111E-01  3.822166968896E-02
    128 F   1 H     1.280224335768E-01  1.464202965111E-01 -4.617783303118E-01
    129 T   1 H     1.519006323619E-01  1.237169200581E-01  1.077528127834E-02
    130 F   1 H     3.480993676374E-01 -1.237169200581E-01 -4.892247187224E-01
    131 F   1 H    -3.480993676374E-01  3.762830799418E-01 -1.077528127834E-02
    132 F   1 H    -1.519006323619E-01 -3.762830799418E-01  4.892247187224E-01
    133 F   1 H    -1.519006323619E-01 -1.237169200581E-01 -1.077528127834E-02
    134 F   1 H    -3.480993676374E-01  1.237169200581E-01  4.892247187224E-01
    135 F   1 H     3.480993676374E-01 -3.762830799418E-01  1.077528127834E-02
    136 F   1 H     1.519006323619E-01  3.762830799418E-01 -4.892247187224E-01
    137 T   1 H     6.004459152025E-02  1.742008210591E-01  8.868282560525E-02
    138 F   1 H     4.399554084791E-01 -1.742008210591E-01 -4.113171743955E-01
    139 F   1 H    -4.399554084791E-01  3.257991789407E-01 -8.868282560525E-02
    140 F   1 H    -6.004459152025E-02 -3.257991789407E-01  4.113171743955E-01
    141 F   1 H    -6.004459152025E-02 -1.742008210591E-01 -8.868282560525E-02
    142 F   1 H    -4.399554084791E-01  1.742008210591E-01  4.113171743955E-01
    143 F   1 H     4.399554084791E-01 -3.257991789407E-01  8.868282560525E-02
    144 F   1 H     6.004459152025E-02  3.257991789407E-01 -4.113171743955E-01
    145 T   1 H    -3.677177416589E-02  8.211363789653E-02 -3.514690114544E-01
    146 F   1 H    -4.632282258334E-01 -8.211363789653E-02  1.485309885464E-01
    147 F   1 H     4.632282258334E-01  4.178863621033E-01  3.514690114544E-01
    148 F   1 H     3.677177416589E-02 -4.178863621033E-01 -1.485309885464E-01
    149 F   1 H     3.677177416589E-02 -8.211363789653E-02  3.514690114544E-01
    150 F   1 H     4.632282258334E-01  8.211363789653E-02 -1.485309885464E-01
    151 F   1 H    -4.632282258334E-01 -4.178863621033E-01 -3.514690114544E-01
    152 F   1 H    -3.677177416589E-02  4.178863621033E-01  1.485309885464E-01
    153 T   1 H     6.881350438239E-02  6.995524244170E-02 -2.309531004713E-01
    154 F   1 H     4.311864956169E-01 -6.995524244170E-02  2.690468995295E-01
    155 F   1 H    -4.311864956169E-01  4.300447575582E-01  2.309531004713E-01
    156 F   1 H    -6.881350438239E-02 -4.300447575582E-01 -2.690468995295E-01
    157 F   1 H    -6.881350438239E-02 -6.995524244170E-02  2.309531004713E-01
    158 F   1 H    -4.311864956169E-01  6.995524244170E-02 -2.690468995295E-01
    159 F   1 H     4.311864956169E-01 -4.300447575582E-01 -2.309531004713E-01
    160 F   1 H     6.881350438239E-02  4.300447575582E-01  2.690468995295E-01

 T = ATOM BELONGING TO THE ASYMMETRIC UNIT
 *******************************************************************************
 * GEOMETRY EDITING - INPUT COORDINATES ARE GIVEN IN ANGSTROM         
 *******************************************************************************

 GEOMETRY NOW FULLY CONSISTENT WITH THE GROUP

 FRQFRQFRQFRQFRQFRQFRQFRQFRQFRQFRQFRQFRQFRQFRQFRQFRQFRQFRQFRQFRQFRQFRQFRQFRQFRQ

                       FREQUENCY CALCULATION

 INFORMATION **** INPFREQ ****  PRINTING OF EIGENVECTORS
 INFORMATION **** INPFREQ **** NEW DEFAULT - IMPOSING ECKART CONDITIONS TO THE HESSIAN

 GCALCO - MAX INDICES DIRECT LATTICE VECTOR    14    23     9
 NO.OF VECTORS CREATED 6999 STARS 1062 RMAX   255.93948 BOHR

 GEOMETRY FOR WAVE FUNCTION - DIMENSIONALITY OF THE SYSTEM    3
 (NON PERIODIC DIRECTION: LATTICE PARAMETER FORMALLY SET TO 500)
 *******************************************************************************
 LATTICE PARAMETERS (ANGSTROMS AND DEGREES) - BOHR = 0.5291772083 ANGSTROM
 PRIMITIVE CELL - CENTRING CODE 1/0 VOLUME=  1483.098952 - DENSITY  1.353 g/cm^3
         A              B              C           ALPHA      BETA       GAMMA 
    11.83348345     7.27269055    17.23306043    90.000000  90.000000  90.000000
 *******************************************************************************
 ATOMS IN THE ASYMMETRIC UNIT   20 - ATOMS IN THE UNIT CELL:  160
     ATOM                 X/A                 Y/B                 Z/C    
 *******************************************************************************
      1 T   8 O    -2.360040650316E-01  2.464923432463E-01 -3.701521052710E-01
      2 F   8 O    -2.639959349692E-01 -2.464923432463E-01  1.298478947296E-01
      3 F   8 O     2.639959349676E-01  2.535076567530E-01  3.701521052710E-01
      4 F   8 O     2.360040650316E-01 -2.535076567543E-01 -1.298478947284E-01
      5 F   8 O     2.360040650316E-01 -2.464923432463E-01  3.701521052710E-01
      6 F   8 O     2.639959349676E-01  2.464923432463E-01 -1.298478947284E-01
      7 F   8 O    -2.639959349692E-01 -2.535076567543E-01 -3.701521052710E-01
      8 F   8 O    -2.360040650316E-01  2.535076567530E-01  1.298478947296E-01
      9 T   8 O    -1.069924738538E-01  2.734826999694E-01  3.023134740299E-04
     10 F   8 O    -3.930075261471E-01 -2.734826999694E-01 -4.996976865254E-01
     11 F   8 O     3.930075261454E-01  2.265173000299E-01 -3.023134740299E-04
     12 F   8 O     1.069924738538E-01 -2.265173000313E-01  4.996976865266E-01
     13 F   8 O     1.069924738538E-01 -2.734826999694E-01 -3.023134740299E-04
     14 F   8 O     3.930075261454E-01  2.734826999694E-01  4.996976865266E-01
     15 F   8 O    -3.930075261471E-01 -2.265173000313E-01  3.023134740299E-04
     16 F   8 O    -1.069924738538E-01  2.265173000299E-01 -4.996976865254E-01
     17 T   7 N     1.407876579062E-02  2.078391921179E-01 -9.764512804396E-02
     18 F   7 N     4.859212342085E-01 -2.078391921179E-01  4.023548719566E-01
     19 F   7 N    -4.859212342102E-01  2.921608078814E-01  9.764512804396E-02
     20 F   7 N    -1.407876579062E-02 -2.921608078828E-01 -4.023548719555E-01
     21 F   7 N    -1.407876579062E-02 -2.078391921179E-01  9.764512804396E-02
     22 F   7 N    -4.859212342102E-01  2.078391921179E-01 -4.023548719555E-01
     23 F   7 N     4.859212342085E-01 -2.921608078828E-01 -9.764512804396E-02
     24 F   7 N     1.407876579062E-02  2.921608078814E-01  4.023548719566E-01
     25 T   6 C    -1.773238511347E-01  2.313049456572E-01 -3.033501596644E-01
     26 F   6 C    -3.226761488662E-01 -2.313049456572E-01  1.966498403362E-01
     27 F   6 C     3.226761488645E-01  2.686950543422E-01  3.033501596644E-01
     28 F   6 C     1.773238511347E-01 -2.686950543435E-01 -1.966498403350E-01
     29 F   6 C     1.773238511347E-01 -2.313049456572E-01  3.033501596644E-01
     30 F   6 C     3.226761488645E-01  2.313049456572E-01 -1.966498403350E-01
     31 F   6 C    -3.226761488662E-01 -2.686950543435E-01 -3.033501596644E-01
     32 F   6 C    -1.773238511347E-01  2.686950543422E-01  1.966498403362E-01
     33 T   6 C    -5.643514856656E-02  2.133285325976E-01 -1.634253177545E-01
     34 F   6 C    -4.435648514343E-01 -2.133285325976E-01  3.365746822460E-01
     35 F   6 C     4.435648514326E-01  2.866714674017E-01  1.634253177545E-01
     36 F   6 C     5.643514856656E-02 -2.866714674031E-01 -3.365746822449E-01
     37 F   6 C     5.643514856656E-02 -2.133285325976E-01  1.634253177545E-01
     38 F   6 C     4.435648514326E-01  2.133285325976E-01 -3.365746822449E-01
     39 F   6 C    -4.435648514343E-01 -2.866714674031E-01 -1.634253177545E-01
     40 F   6 C    -5.643514856656E-02  2.866714674017E-01  3.365746822460E-01
     41 T   6 C    -1.632685768863E-01  2.935735876428E-01 -1.659290592749E-01
     42 F   6 C    -3.367314231146E-01 -2.935735876428E-01  3.340709407257E-01
     43 F   6 C     3.367314231129E-01  2.064264123565E-01  1.659290592749E-01
     44 F   6 C     1.632685768863E-01 -2.064264123578E-01 -3.340709407245E-01
     45 F   6 C     1.632685768863E-01 -2.935735876428E-01  1.659290592749E-01
     46 F   6 C     3.367314231129E-01  2.935735876428E-01 -3.340709407245E-01
     47 F   6 C    -3.367314231146E-01 -2.064264123578E-01 -1.659290592749E-01
     48 F   6 C    -1.632685768863E-01  2.064264123565E-01  3.340709407257E-01
     49 T   6 C    -2.227987491373E-01  3.021651777103E-01 -2.352256323119E-01
     50 F   6 C    -2.772012508635E-01 -3.021651777103E-01  2.647743676886E-01
     51 F   6 C     2.772012508618E-01  1.978348222890E-01  2.352256323119E-01
     52 F   6 C     2.227987491373E-01 -1.978348222904E-01 -2.647743676875E-01
     53 F   6 C     2.227987491373E-01 -3.021651777103E-01  2.352256323119E-01
     54 F   6 C     2.772012508618E-01  3.021651777103E-01 -2.647743676875E-01
     55 F   6 C    -2.772012508635E-01 -1.978348222904E-01 -2.352256323119E-01
     56 F   6 C    -2.227987491373E-01  1.978348222890E-01  2.647743676886E-01
     57 T   6 C     8.801986616211E-02  2.192298462567E-01  3.168283532759E-02
     58 F   6 C     4.119801338370E-01 -2.192298462567E-01 -4.683171646718E-01
     59 F   6 C    -4.119801338387E-01  2.807701537426E-01 -3.168283532759E-02
     60 F   6 C    -8.801986616211E-02 -2.807701537440E-01  4.683171646730E-01
     61 F   6 C    -8.801986616211E-02 -2.192298462567E-01 -3.168283532759E-02
     62 F   6 C    -4.119801338387E-01  2.192298462567E-01  4.683171646730E-01
     63 F   6 C     4.119801338370E-01 -2.807701537440E-01  3.168283532759E-02
     64 F   6 C     8.801986616211E-02  2.807701537426E-01 -4.683171646718E-01
     65 T   6 C    -7.235817749286E-02  1.453431368809E-01 -3.002026411296E-01
     66 F   6 C    -4.276418225080E-01 -1.453431368809E-01  1.997973588710E-01
     67 F   6 C     4.276418225063E-01  3.546568631184E-01  3.002026411296E-01
     68 F   6 C     7.235817749286E-02 -3.546568631198E-01 -1.997973588699E-01
     69 F   6 C     7.235817749286E-02 -1.453431368809E-01  3.002026411296E-01
     70 F   6 C     4.276418225063E-01  1.453431368809E-01 -1.997973588699E-01
     71 F   6 C    -4.276418225080E-01 -3.546568631198E-01 -3.002026411296E-01
     72 F   6 C    -7.235817749286E-02  3.546568631184E-01  1.997973588710E-01
     73 T   6 C    -1.128826590984E-02  2.351806043458E-01 -2.259795914087E-02
     74 F   6 C    -4.887117340910E-01 -2.351806043458E-01  4.774020408597E-01
     75 F   6 C     4.887117340893E-01  2.648193956535E-01  2.259795914087E-02
     76 F   6 C     1.128826590984E-02 -2.648193956549E-01 -4.774020408585E-01
     77 F   6 C     1.128826590984E-02 -2.351806043458E-01  2.259795914087E-02
     78 F   6 C     4.887117340893E-01  2.351806043458E-01 -4.774020408585E-01
     79 F   6 C    -4.887117340910E-01 -2.648193956549E-01 -2.259795914087E-02
     80 F   6 C    -1.128826590984E-02  2.648193956535E-01  4.774020408597E-01
     81 T   6 C    -1.289464785538E-02  1.372155511774E-01 -2.312918458710E-01
     82 F   6 C    -4.871053521455E-01 -1.372155511774E-01  2.687081541296E-01
     83 F   6 C     4.871053521438E-01  3.627844488220E-01  2.312918458710E-01
     84 F   6 C     1.289464785538E-02 -3.627844488233E-01 -2.687081541284E-01
     85 F   6 C     1.289464785538E-02 -1.372155511774E-01  2.312918458710E-01
     86 F   6 C     4.871053521438E-01  1.372155511774E-01 -2.687081541284E-01
     87 F   6 C    -4.871053521455E-01 -3.627844488233E-01 -2.312918458710E-01
     88 F   6 C    -1.289464785538E-02  3.627844488220E-01  2.687081541296E-01
     89 T   1 H    -1.859510725890E-01  2.293154532899E-01 -4.149876781410E-01
     90 F   1 H    -3.140489274118E-01 -2.293154532899E-01  8.501232185962E-02
     91 F   1 H     3.140489274101E-01  2.706845467094E-01  4.149876781410E-01
     92 F   1 H     1.859510725890E-01 -2.706845467108E-01 -8.501232185846E-02
     93 F   1 H     1.859510725890E-01 -2.293154532899E-01  4.149876781410E-01
     94 F   1 H     3.140489274101E-01  2.293154532899E-01 -8.501232185846E-02
     95 F   1 H    -3.140489274118E-01 -2.706845467108E-01 -4.149876781410E-01
     96 F   1 H    -1.859510725890E-01  2.706845467094E-01  8.501232185962E-02
     97 T   1 H     9.718767970565E-02  1.886886148919E-01 -1.098197145619E-01
     98 F   1 H     4.028123202935E-01 -1.886886148919E-01  3.901802854387E-01
     99 F   1 H    -4.028123202952E-01  3.113113851074E-01  1.098197145619E-01
    100 F   1 H    -9.718767970565E-02 -3.113113851088E-01 -3.901802854375E-01
    101 F   1 H    -9.718767970565E-02 -1.886886148919E-01  1.098197145619E-01
    102 F   1 H    -4.028123202952E-01  1.886886148919E-01 -3.901802854375E-01
    103 F   1 H     4.028123202935E-01 -3.113113851088E-01 -1.098197145619E-01
    104 F   1 H     9.718767970565E-02  3.113113851074E-01  3.901802854387E-01
    105 T   1 H    -2.005447869910E-01  3.533746486171E-01 -1.147798828103E-01
    106 F   1 H    -2.994552130099E-01 -3.533746486171E-01  3.852201171903E-01
    107 F   1 H     2.994552130082E-01  1.466253513822E-01  1.147798828103E-01
    108 F   1 H     2.005447869910E-01 -1.466253513835E-01 -3.852201171892E-01
    109 F   1 H     2.005447869910E-01 -3.533746486171E-01  1.147798828103E-01
    110 F   1 H     2.994552130082E-01  3.533746486171E-01 -3.852201171892E-01
    111 F   1 H    -2.994552130099E-01 -1.466253513835E-01 -1.147798828103E-01
    112 F   1 H    -2.005447869910E-01  1.466253513822E-01  3.852201171903E-01
    113 T   1 H    -3.047681123004E-01  3.682283933314E-01 -2.361775483162E-01
    114 F   1 H    -1.952318877004E-01 -3.682283933314E-01  2.638224516844E-01
    115 F   1 H     1.952318876987E-01  1.317716066679E-01  2.361775483162E-01
    116 F   1 H     3.047681123004E-01 -1.317716066693E-01 -2.638224516832E-01
    117 F   1 H     3.047681123004E-01 -3.682283933314E-01  2.361775483162E-01
    118 F   1 H     1.952318876987E-01  3.682283933314E-01 -2.638224516832E-01
    119 F   1 H    -1.952318877004E-01 -1.317716066693E-01 -2.361775483162E-01
    120 F   1 H    -3.047681123004E-01  1.317716066679E-01  2.638224516844E-01
    121 T   1 H     1.280224335768E-01  3.535797034888E-01  3.822166968896E-02
    122 F   1 H     3.719775664224E-01 -3.535797034888E-01 -4.617783303105E-01
    123 F   1 H    -3.719775664241E-01  1.464202965105E-01 -3.822166968896E-02
    124 F   1 H    -1.280224335768E-01 -1.464202965119E-01  4.617783303116E-01
    125 F   1 H    -1.280224335768E-01 -3.535797034888E-01 -3.822166968896E-02
    126 F   1 H    -3.719775664241E-01  3.535797034888E-01  4.617783303116E-01
    127 F   1 H     3.719775664224E-01 -1.464202965119E-01  3.822166968896E-02
    128 F   1 H     1.280224335768E-01  1.464202965105E-01 -4.617783303105E-01
    129 T   1 H     1.519006323619E-01  1.237169200581E-01  1.077528127834E-02
    130 F   1 H     3.480993676373E-01 -1.237169200581E-01 -4.892247187211E-01
    131 F   1 H    -3.480993676390E-01  3.762830799412E-01 -1.077528127834E-02
    132 F   1 H    -1.519006323619E-01 -3.762830799426E-01  4.892247187222E-01
    133 F   1 H    -1.519006323619E-01 -1.237169200581E-01 -1.077528127834E-02
    134 F   1 H    -3.480993676390E-01  1.237169200581E-01  4.892247187222E-01
    135 F   1 H     3.480993676373E-01 -3.762830799426E-01  1.077528127834E-02
    136 F   1 H     1.519006323619E-01  3.762830799412E-01 -4.892247187211E-01
    137 T   1 H     6.004459152025E-02  1.742008210591E-01  8.868282560525E-02
    138 F   1 H     4.399554084789E-01 -1.742008210591E-01 -4.113171743942E-01
    139 F   1 H    -4.399554084806E-01  3.257991789402E-01 -8.868282560525E-02
    140 F   1 H    -6.004459152025E-02 -3.257991789415E-01  4.113171743953E-01
    141 F   1 H    -6.004459152025E-02 -1.742008210591E-01 -8.868282560525E-02
    142 F   1 H    -4.399554084806E-01  1.742008210591E-01  4.113171743953E-01
    143 F   1 H     4.399554084789E-01 -3.257991789415E-01  8.868282560525E-02
    144 F   1 H     6.004459152025E-02  3.257991789402E-01 -4.113171743942E-01
    145 T   1 H    -3.677177416589E-02  8.211363789653E-02 -3.514690114544E-01
    146 F   1 H    -4.632282258350E-01 -8.211363789653E-02  1.485309885462E-01
    147 F   1 H     4.632282258333E-01  4.178863621028E-01  3.514690114544E-01
    148 F   1 H     3.677177416589E-02 -4.178863621042E-01 -1.485309885450E-01
    149 F   1 H     3.677177416589E-02 -8.211363789653E-02  3.514690114544E-01
    150 F   1 H     4.632282258333E-01  8.211363789653E-02 -1.485309885450E-01
    151 F   1 H    -4.632282258350E-01 -4.178863621042E-01 -3.514690114544E-01
    152 F   1 H    -3.677177416589E-02  4.178863621028E-01  1.485309885462E-01
    153 T   1 H     6.881350438239E-02  6.995524244170E-02 -2.309531004713E-01
    154 F   1 H     4.311864956168E-01 -6.995524244170E-02  2.690468995293E-01
    155 F   1 H    -4.311864956185E-01  4.300447575576E-01  2.309531004713E-01
    156 F   1 H    -6.881350438239E-02 -4.300447575590E-01 -2.690468995282E-01
    157 F   1 H    -6.881350438239E-02 -6.995524244170E-02  2.309531004713E-01
    158 F   1 H    -4.311864956185E-01  6.995524244170E-02 -2.690468995282E-01
    159 F   1 H     4.311864956168E-01 -4.300447575590E-01 -2.309531004713E-01
    160 F   1 H     6.881350438239E-02  4.300447575576E-01  2.690468995293E-01

 T = ATOM BELONGING TO THE ASYMMETRIC UNIT

 ****    8 SYMMOPS - TRANSLATORS IN FRACTIONAL UNITS
 **** MATRICES AND TRANSLATORS IN THE CRYSTALLOGRAPHIC REFERENCE FRAME
   V INV                    ROTATION MATRICES                   TRANSLATORS
   1   1  1.00  0.00  0.00  0.00  1.00  0.00  0.00  0.00  1.00  0.00  0.00  0.00
   2   2 -1.00  0.00  0.00  0.00 -1.00  0.00  0.00  0.00  1.00  0.50  0.00  0.50
   3   3  1.00  0.00  0.00  0.00 -1.00  0.00  0.00  0.00 -1.00  0.50  0.50  0.00
   4   4 -1.00  0.00  0.00  0.00  1.00  0.00  0.00  0.00 -1.00  0.00  0.50  0.50
   5   5 -1.00  0.00  0.00  0.00 -1.00  0.00  0.00  0.00 -1.00  0.00  0.00  0.00
   6   6  1.00  0.00  0.00  0.00  1.00  0.00  0.00  0.00 -1.00  0.50  0.00  0.50
   7   7 -1.00  0.00  0.00  0.00  1.00  0.00  0.00  0.00  1.00  0.50  0.50  0.00
   8   8  1.00  0.00  0.00  0.00 -1.00  0.00  0.00  0.00  1.00  0.00  0.50  0.50

 DIRECT LATTICE VECTORS CARTESIAN COMPONENTS (ANGSTROM)
          X                    Y                    Z
   0.118334834513E+02   0.000000000000E+00   0.000000000000E+00
   0.000000000000E+00   0.727269055415E+01   0.000000000000E+00
   0.000000000000E+00   0.000000000000E+00   0.172330604341E+02


 CARTESIAN COORDINATES - PRIMITIVE CELL
 *******************************************************************************
 *      ATOM          X(ANGSTROM)         Y(ANGSTROM)         Z(ANGSTROM)
 *******************************************************************************
    1     8 O    -2.792750197991E+00  1.792662536398E+00 -6.378853599945E+00
    2     8 O    -3.123991527669E+00 -1.792662536398E+00  2.237676617115E+00
    3     8 O     3.123991527649E+00  1.843682740672E+00  6.378853599945E+00
    4     8 O     2.792750197991E+00 -1.843682740682E+00 -2.237676617095E+00
    5     8 O     2.792750197991E+00 -1.792662536398E+00  6.378853599945E+00
    6     8 O     3.123991527649E+00  1.792662536398E+00 -2.237676617095E+00
    7     8 O    -3.123991527669E+00 -1.843682740682E+00 -6.378853599945E+00
    8     8 O    -2.792750197991E+00  1.843682740672E+00  2.237676617115E+00
    9     8 O    -1.266093668762E+00  1.988955048791E+00  5.209786368000E-03
   10     8 O    -4.650648056898E+00 -1.988955048791E+00 -8.611320430672E+00
   11     8 O     4.650648056878E+00  1.647390228279E+00 -5.209786368000E-03
   12     8 O     1.266093668762E+00 -1.647390228289E+00  8.611320430692E+00
   13     8 O     1.266093668762E+00 -1.988955048791E+00 -5.209786368000E-03
   14     8 O     4.650648056878E+00  1.988955048791E+00  8.611320430692E+00
   15     8 O    -4.650648056898E+00 -1.647390228289E+00  5.209786368000E-03
   16     8 O    -1.266093668762E+00  1.647390228279E+00 -8.611320430672E+00
   17     7 N     1.666008419980E-01  1.511550129298E+00 -1.682724392677E+00
   18     7 N     5.750140883642E+00 -1.511550129298E+00  6.933805824383E+00
   19     7 N    -5.750140883662E+00  2.124795147772E+00  1.682724392677E+00
   20     7 N    -1.666008419980E-01 -2.124795147782E+00 -6.933805824363E+00
   21     7 N    -1.666008419980E-01 -1.511550129298E+00  1.682724392677E+00
   22     7 N    -5.750140883662E+00  1.511550129298E+00 -6.933805824363E+00
   23     7 N     5.750140883642E+00 -2.124795147782E+00 -1.682724392677E+00
   24     7 N     1.666008419980E-01  2.124795147772E+00  6.933805824383E+00
   25     6 C    -2.098358857923E+00  1.682209293409E+00 -5.227651634191E+00
   26     6 C    -3.818382867737E+00 -1.682209293409E+00  3.388878582869E+00
   27     6 C     3.818382867717E+00  1.954135983661E+00  5.227651634191E+00
   28     6 C     2.098358857923E+00 -1.954135983671E+00 -3.388878582849E+00
   29     6 C     2.098358857923E+00 -1.682209293409E+00  5.227651634191E+00
   30     6 C     3.818382867717E+00  1.682209293409E+00 -3.388878582849E+00
   31     6 C    -3.818382867737E+00 -1.954135983671E+00 -5.227651634191E+00
   32     6 C    -2.098358857923E+00  1.954135983661E+00  3.388878582869E+00
   33     6 C    -6.678243966340E-01  1.551472403953E+00 -2.816318377326E+00
   34     6 C    -5.248917329026E+00 -1.551472403953E+00  5.800211839734E+00
   35     6 C     5.248917329006E+00  2.084872873117E+00  2.816318377326E+00
   36     6 C     6.678243966340E-01 -2.084872873127E+00 -5.800211839714E+00
   37     6 C     6.678243966340E-01 -1.551472403953E+00  2.816318377326E+00
   38     6 C     5.248917329006E+00  1.551472403953E+00 -5.800211839714E+00
   39     6 C    -5.248917329026E+00 -2.084872873127E+00 -2.816318377326E+00
   40     6 C    -6.678243966340E-01  2.084872873117E+00  5.800211839734E+00
   41     6 C    -1.932036002701E+00  2.135069857798E+00 -2.859465506258E+00
   42     6 C    -3.984705722959E+00 -2.135069857798E+00  5.757064710802E+00
   43     6 C     3.984705722939E+00  1.501275419272E+00  2.859465506258E+00
   44     6 C     1.932036002701E+00 -1.501275419282E+00 -5.757064710782E+00
   45     6 C     1.932036002701E+00 -2.135069857798E+00  2.859465506258E+00
   46     6 C     3.984705722939E+00  2.135069857798E+00 -5.757064710782E+00
   47     6 C    -3.984705722959E+00 -1.501275419282E+00 -2.859465506258E+00
   48     6 C    -1.932036002701E+00  1.501275419272E+00  5.757064710802E+00
   49     6 C    -2.636485310887E+00  2.197553833727E+00 -4.053657537281E+00
   50     6 C    -3.280256414773E+00 -2.197553833727E+00  4.562872679779E+00
   51     6 C     3.280256414753E+00  1.438791443343E+00  4.053657537281E+00
   52     6 C     2.636485310887E+00 -1.438791443353E+00 -4.562872679759E+00
   53     6 C     2.636485310887E+00 -2.197553833727E+00  4.053657537281E+00
   54     6 C     3.280256414753E+00  2.197553833727E+00 -4.562872679759E+00
   55     6 C    -3.280256414773E+00 -1.438791443353E+00 -4.053657537281E+00
   56     6 C    -2.636485310887E+00  1.438791443343E+00  4.562872679779E+00
   57     6 C     1.041581629615E+00  1.594390832059E+00  5.459922159240E-01
   58     6 C     4.875160096025E+00 -1.594390832059E+00 -8.070538001116E+00
   59     6 C    -4.875160096045E+00  2.041954445011E+00 -5.459922159240E-01
   60     6 C    -1.041581629615E+00 -2.041954445021E+00  8.070538001136E+00
   61     6 C    -1.041581629615E+00 -1.594390832059E+00 -5.459922159240E-01
   62     6 C    -4.875160096045E+00  1.594390832059E+00  8.070538001136E+00
   63     6 C     4.875160096025E+00 -2.041954445021E+00  5.459922159240E-01
   64     6 C     1.041581629615E+00  2.041954445011E+00 -8.070538001116E+00
   65     6 C    -8.562492959280E-01  1.057035658704E+00 -5.173410257062E+00
   66     6 C    -5.060492429732E+00 -1.057035658704E+00  3.443119959998E+00
   67     6 C     5.060492429712E+00  2.579309618366E+00  5.173410257062E+00
   68     6 C     8.562492959280E-01 -2.579309618376E+00 -3.443119959978E+00
   69     6 C     8.562492959280E-01 -1.057035658704E+00  5.173410257062E+00
   70     6 C     5.060492429712E+00  1.057035658704E+00 -3.443119959978E+00
   71     6 C    -5.060492429732E+00 -2.579309618376E+00 -5.173410257062E+00
   72     6 C    -8.562492959280E-01  2.579309618366E+00  3.443119959998E+00
   73     6 C    -1.335795078380E-01  1.710395759745E+00 -3.894319955620E-01
   74     6 C    -5.783162217822E+00 -1.710395759745E+00  8.227098221498E+00
   75     6 C     5.783162217802E+00  1.925949517325E+00  3.894319955620E-01
   76     6 C     1.335795078380E-01 -1.925949517335E+00 -8.227098221478E+00
   77     6 C     1.335795078380E-01 -1.710395759745E+00  3.894319955620E-01
   78     6 C     5.783162217802E+00  1.710395759745E+00 -8.227098221478E+00
   79     6 C    -5.783162217822E+00 -1.925949517335E+00 -3.894319955620E-01
   80     6 C    -1.335795078380E-01  1.925949517325E+00  8.227098221498E+00
   81     6 C    -1.525886020070E-01  9.979262429300E-01 -3.985866357809E+00
   82     6 C    -5.764153123653E+00 -9.979262429300E-01  4.630663859251E+00
   83     6 C     5.764153123633E+00  2.638419034140E+00  3.985866357809E+00
   84     6 C     1.525886020070E-01 -2.638419034150E+00 -4.630663859231E+00
   85     6 C     1.525886020070E-01 -9.979262429300E-01  3.985866357809E+00
   86     6 C     5.764153123633E+00  9.979262429300E-01 -4.630663859231E+00
   87     6 C    -5.764153123653E+00 -2.638419034150E+00 -3.985866357809E+00
   88     6 C    -1.525886020070E-01  2.638419034140E+00  4.630663859251E+00
   89     1 H    -2.200448940234E+00  1.667740331062E+00 -7.151507736810E+00
   90     1 H    -3.716292785426E+00 -1.667740331062E+00  1.465022480250E+00
   91     1 H     3.716292785406E+00  1.968604946008E+00  7.151507736810E+00
   92     1 H     2.200448940234E+00 -1.968604946018E+00 -1.465022480230E+00
   93     1 H     2.200448940234E+00 -1.667740331062E+00  7.151507736810E+00
   94     1 H     3.716292785406E+00  1.667740331062E+00 -1.465022480230E+00
   95     1 H    -3.716292785426E+00 -1.968604946018E+00 -7.151507736810E+00
   96     1 H    -2.200448940234E+00  1.968604946008E+00  1.465022480250E+00
   97     1 H     1.150068799467E+00  1.372273907200E+00 -1.892529777901E+00
   98     1 H     4.766672926173E+00 -1.372273907200E+00  6.724000439159E+00
   99     1 H    -4.766672926193E+00  2.264071369870E+00  1.892529777901E+00
  100     1 H    -1.150068799467E+00 -2.264071369880E+00 -6.724000439139E+00
  101     1 H    -1.150068799467E+00 -1.372273907200E+00  1.892529777901E+00
  102     1 H    -4.766672926193E+00  1.372273907200E+00 -6.724000439139E+00
  103     1 H     4.766672926173E+00 -2.264071369880E+00 -1.892529777901E+00
  104     1 H     1.150068799467E+00  2.264071369870E+00  6.724000439159E+00
  105     1 H    -2.373143418102E+00  2.569984469074E+00 -1.978008657088E+00
  106     1 H    -3.543598307558E+00 -2.569984469074E+00  6.638521559972E+00
  107     1 H     3.543598307538E+00  1.066360807996E+00  1.978008657088E+00
  108     1 H     2.373143418102E+00 -1.066360808006E+00 -6.638521559952E+00
  109     1 H     2.373143418102E+00 -2.569984469074E+00  1.978008657088E+00
  110     1 H     3.543598307538E+00  2.569984469074E+00 -6.638521559952E+00
  111     1 H    -3.543598307558E+00 -1.066360808006E+00 -1.978008657088E+00
  112     1 H    -2.373143418102E+00  1.066360807996E+00  6.638521559972E+00
  113     1 H    -3.606468413391E+00  2.678011157951E+00 -4.070061963311E+00
  114     1 H    -2.310273312269E+00 -2.678011157951E+00  4.546468253749E+00
  115     1 H     2.310273312249E+00  9.583341191190E-01  4.070061963311E+00
  116     1 H     3.606468413391E+00 -9.583341191290E-01 -4.546468253729E+00
  117     1 H     3.606468413391E+00 -2.678011157951E+00  4.070061963311E+00
  118     1 H     2.310273312249E+00  2.678011157951E+00 -4.546468253729E+00
  119     1 H    -2.310273312269E+00 -9.583341191290E-01 -4.070061963311E+00
  120     1 H    -3.606468413391E+00  9.583341191190E-01  4.546468253749E+00
  121     1 H     1.514951349126E+00  2.571475769702E+00  6.586763436420E-01
  122     1 H     4.401790376514E+00 -2.571475769702E+00 -7.957853873398E+00
  123     1 H    -4.401790376534E+00  1.064869507368E+00 -6.586763436420E-01
  124     1 H    -1.514951349126E+00 -1.064869507378E+00  7.957853873418E+00
  125     1 H    -1.514951349126E+00 -2.571475769702E+00 -6.586763436420E-01
  126     1 H    -4.401790376534E+00  2.571475769702E+00  7.957853873418E+00
  127     1 H     4.401790376514E+00 -1.064869507378E+00  6.586763436420E-01
  128     1 H     1.514951349126E+00  1.064869507368E+00 -7.957853873398E+00
  129     1 H     1.797513619296E+00  8.997548758950E-01  1.856910734640E-01
  130     1 H     4.119228106344E+00 -8.997548758950E-01 -8.430839143576E+00
  131     1 H    -4.119228106364E+00  2.736590401175E+00 -1.856910734640E-01
  132     1 H    -1.797513619296E+00 -2.736590401185E+00  8.430839143596E+00
  133     1 H    -1.797513619296E+00 -8.997548758950E-01 -1.856910734640E-01
  134     1 H    -4.119228106364E+00  8.997548758950E-01  8.430839143596E+00
  135     1 H     4.119228106344E+00 -2.736590401185E+00  1.856910734640E-01
  136     1 H     1.797513619296E+00  2.736590401175E+00 -8.430839143576E+00
  137     1 H     7.105366800950E-01  1.266908665842E+00  1.528276493122E+00
  138     1 H     5.206205045545E+00 -1.266908665842E+00 -7.088253723918E+00
  139     1 H    -5.206205045565E+00  2.369436611228E+00 -1.528276493122E+00
  140     1 H    -7.105366800950E-01 -2.369436611238E+00  7.088253723938E+00
  141     1 H    -7.105366800950E-01 -1.266908665842E+00 -1.528276493122E+00
  142     1 H    -5.206205045565E+00  1.266908665842E+00  7.088253723938E+00
  143     1 H     5.206205045545E+00 -2.369436611238E+00  1.528276493122E+00
  144     1 H     7.105366800950E-01  2.369436611228E+00 -7.088253723918E+00
  145     1 H    -4.351381810670E-01  5.971870786970E-01 -6.056886715107E+00
  146     1 H    -5.481603544593E+00 -5.971870786970E-01  2.559643501953E+00
  147     1 H     5.481603544573E+00  3.039158198373E+00  6.056886715107E+00
  148     1 H     4.351381810670E-01 -3.039158198383E+00 -2.559643501933E+00
  149     1 H     4.351381810670E-01 -5.971870786970E-01  6.056886715107E+00
  150     1 H     5.481603544573E+00  5.971870786970E-01 -2.559643501933E+00
  151     1 H    -5.481603544593E+00 -3.039158198383E+00 -6.056886715107E+00
  152     1 H    -4.351381810670E-01  3.039158198373E+00  2.559643501953E+00
  153     1 H     8.143034653350E-01  5.087628309190E-01 -3.980028737864E+00
  154     1 H     5.102438260305E+00 -5.087628309190E-01  4.636501479196E+00
  155     1 H    -5.102438260325E+00  3.127582446151E+00  3.980028737864E+00
  156     1 H    -8.143034653350E-01 -3.127582446161E+00 -4.636501479176E+00
  157     1 H    -8.143034653350E-01 -5.087628309190E-01  3.980028737864E+00
  158     1 H    -5.102438260325E+00  5.087628309190E-01 -4.636501479176E+00
  159     1 H     5.102438260305E+00 -3.127582446161E+00 -3.980028737864E+00
  160     1 H     8.143034653350E-01  3.127582446151E+00  4.636501479196E+00

 *******************************************************************************
 STARTING BASIS SET HANDLING 
 *******************************************************************************

 Loading internal basis set: DEF2-MSVP           

 Please cite in your publication:
 Fully Optimized Contracted Gaussian Basis Sets for Atoms Li to Kr. A. Schfer, H. Horn and R. Ahlrichs; J. Chem. Phys. 97, 2571 (1992).                                                                                                                         
 S. Grimme, J. G. Brandenburg, C. Bannwarth, and A. Hansen, J. Chem. Phys., 143, 054107 (2015).                                                                                                                                                                  

 *******************************************************************************
 LOCAL ATOMIC FUNCTIONS BASIS SET
 *******************************************************************************
   ATOM   X(AU)   Y(AU)   Z(AU)  N. TYPE  EXPONENT  S COEF   P COEF   D/F/G COEF
 *******************************************************************************
   1 O   -5.278   3.388 -12.054
                                  1 S  
                                         6.773E+03 1.727E-03 0.000E+00 0.000E+00
                                         1.017E+03 1.325E-02 0.000E+00 0.000E+00
                                         2.313E+02 6.603E-02 0.000E+00 0.000E+00
                                         6.501E+01 2.353E-01 0.000E+00 0.000E+00
                                         2.050E+01 5.498E-01 0.000E+00 0.000E+00
                                  2 S  
                                         6.716E+00 1.000E+00 0.000E+00 0.000E+00
                                  3 S  
                                         1.147E+00 1.000E+00 0.000E+00 0.000E+00
                                  4 S  
                                         3.342E-01 1.000E+00 0.000E+00 0.000E+00
                           5-     7 P  
                                         1.769E+01 0.000E+00 4.359E-02 0.000E+00
                                         3.854E+00 0.000E+00 2.318E-01 0.000E+00
                                         1.047E+00 0.000E+00 5.146E-01 0.000E+00
                           8-    10 P  
                                         2.759E-01 0.000E+00 1.000E+00 0.000E+00
                          11-    15 D  
                                         8.000E-01 0.000E+00 0.000E+00 1.000E+00
   2 O   -5.903  -3.388   4.229
   3 O    5.903   3.484  12.054
   4 O    5.278  -3.484  -4.229
   5 O    5.278  -3.388  12.054
   6 O    5.903   3.388  -4.229
   7 O   -5.903  -3.484 -12.054
   8 O   -5.278   3.484   4.229
   9 O   -2.393   3.759   0.010
  10 O   -8.788  -3.759 -16.273
  11 O    8.788   3.113  -0.010
  12 O    2.393  -3.113  16.273
  13 O    2.393  -3.759  -0.010
  14 O    8.788   3.759  16.273
  15 O   -8.788  -3.113   0.010
  16 O   -2.393   3.113 -16.273
  17 N    0.315   2.856  -3.180
                                241 S  
                                         5.072E+03 1.707E-03 0.000E+00 0.000E+00
                                         7.614E+02 1.309E-02 0.000E+00 0.000E+00
                                         1.732E+02 6.510E-02 0.000E+00 0.000E+00
                                         4.867E+01 2.305E-01 0.000E+00 0.000E+00
                                         1.533E+01 5.330E-01 0.000E+00 0.000E+00
                                242 S  
                                         5.019E+00 1.000E+00 0.000E+00 0.000E+00
                                243 S  
                                         8.355E-01 1.000E+00 0.000E+00 0.000E+00
                                244 S  
                                         2.463E-01 1.000E+00 0.000E+00 0.000E+00
                         245-   247 P  
                                         1.355E+01 0.000E+00 4.063E-02 0.000E+00
                                         2.918E+00 0.000E+00 2.209E-01 0.000E+00
                                         7.983E-01 0.000E+00 5.186E-01 0.000E+00
                         248-   250 P  
                                         2.190E-01 0.000E+00 1.000E+00 0.000E+00
                         251-   255 D  
                                         8.000E-01 0.000E+00 0.000E+00 1.000E+00
  18 N   10.866  -2.856  13.103
  19 N  -10.866   4.015   3.180
  20 N   -0.315  -4.015 -13.103
  21 N   -0.315  -2.856   3.180
  22 N  -10.866   2.856 -13.103
  23 N   10.866  -4.015  -3.180
  24 N    0.315   4.015  13.103
  25 C   -3.965   3.179  -9.879
                                361 S  
                                         3.624E+03 1.634E-03 0.000E+00 0.000E+00
                                         5.440E+02 1.252E-02 0.000E+00 0.000E+00
                                         1.237E+02 6.211E-02 0.000E+00 0.000E+00
                                         3.476E+01 2.182E-01 0.000E+00 0.000E+00
                                         1.093E+01 4.980E-01 0.000E+00 0.000E+00
                                362 S  
                                         3.574E+00 1.000E+00 0.000E+00 0.000E+00
                                363 S  
                                         5.748E-01 1.000E+00 0.000E+00 0.000E+00
                                364 S  
                                         1.730E-01 1.000E+00 0.000E+00 0.000E+00
                         365-   367 P  
                                         9.443E+00 0.000E+00 3.790E-02 0.000E+00
                                         2.002E+00 0.000E+00 2.082E-01 0.000E+00
                                         5.463E-01 0.000E+00 5.047E-01 0.000E+00
                         368-   370 P  
                                         1.520E-01 0.000E+00 1.000E+00 0.000E+00
                         371-   375 D  
                                         8.000E-01 0.000E+00 0.000E+00 1.000E+00
  26 C   -7.216  -3.179   6.404
  27 C    7.216   3.693   9.879
  28 C    3.965  -3.693  -6.404
  29 C    3.965  -3.179   9.879
  30 C    7.216   3.179  -6.404
  31 C   -7.216  -3.693  -9.879
  32 C   -3.965   3.693   6.404
  33 C   -1.262   2.932  -5.322
  34 C   -9.919  -2.932  10.961
  35 C    9.919   3.940   5.322
  36 C    1.262  -3.940 -10.961
  37 C    1.262  -2.932   5.322
  38 C    9.919   2.932 -10.961
  39 C   -9.919  -3.940  -5.322
  40 C   -1.262   3.940  10.961
  41 C   -3.651   4.035  -5.404
  42 C   -7.530  -4.035  10.879
  43 C    7.530   2.837   5.404
  44 C    3.651  -2.837 -10.879
  45 C    3.651  -4.035   5.404
  46 C    7.530   4.035 -10.879
  47 C   -7.530  -2.837  -5.404
  48 C   -3.651   2.837  10.879
  49 C   -4.982   4.153  -7.660
  50 C   -6.199  -4.153   8.623
  51 C    6.199   2.719   7.660
  52 C    4.982  -2.719  -8.623
  53 C    4.982  -4.153   7.660
  54 C    6.199   4.153  -8.623
  55 C   -6.199  -2.719  -7.660
  56 C   -4.982   2.719   8.623
  57 C    1.968   3.013   1.032
  58 C    9.213  -3.013 -15.251
  59 C   -9.213   3.859  -1.032
  60 C   -1.968  -3.859  15.251
  61 C   -1.968  -3.013  -1.032
  62 C   -9.213   3.013  15.251
  63 C    9.213  -3.859   1.032
  64 C    1.968   3.859 -15.251
  65 C   -1.618   1.998  -9.776
  66 C   -9.563  -1.998   6.507
  67 C    9.563   4.874   9.776
  68 C    1.618  -4.874  -6.507
  69 C    1.618  -1.998   9.776
  70 C    9.563   1.998  -6.507
  71 C   -9.563  -4.874  -9.776
  72 C   -1.618   4.874   6.507
  73 C   -0.252   3.232  -0.736
  74 C  -10.929  -3.232  15.547
  75 C   10.929   3.640   0.736
  76 C    0.252  -3.640 -15.547
  77 C    0.252  -3.232   0.736
  78 C   10.929   3.232 -15.547
  79 C  -10.929  -3.640  -0.736
  80 C   -0.252   3.640  15.547
  81 C   -0.288   1.886  -7.532
  82 C  -10.893  -1.886   8.751
  83 C   10.893   4.986   7.532
  84 C    0.288  -4.986  -8.751
  85 C    0.288  -1.886   7.532
  86 C   10.893   1.886  -8.751
  87 C  -10.893  -4.986  -7.532
  88 C   -0.288   4.986   8.751
  89 H   -4.158   3.152 -13.514
                               1321 S  
                                         1.874E+01 1.968E-02 0.000E+00 0.000E+00
                                         2.826E+00 1.380E-01 0.000E+00 0.000E+00
                                         6.401E-01 4.783E-01 0.000E+00 0.000E+00
                               1322 S  
                                         1.756E-01 1.000E+00 0.000E+00 0.000E+00
  90 H   -7.023  -3.152   2.768
  91 H    7.023   3.720  13.514
  92 H    4.158  -3.720  -2.768
  93 H    4.158  -3.152  13.514
  94 H    7.023   3.152  -2.768
  95 H   -7.023  -3.720 -13.514
  96 H   -4.158   3.720   2.768
  97 H    2.173   2.593  -3.576
  98 H    9.008  -2.593  12.707
  99 H   -9.008   4.278   3.576
 100 H   -2.173  -4.278 -12.707
 101 H   -2.173  -2.593   3.576
 102 H   -9.008   2.593 -12.707
 103 H    9.008  -4.278  -3.576
 104 H    2.173   4.278  12.707
 105 H   -4.485   4.857  -3.738
 106 H   -6.696  -4.857  12.545
 107 H    6.696   2.015   3.738
 108 H    4.485  -2.015 -12.545
 109 H    4.485  -4.857   3.738
 110 H    6.696   4.857 -12.545
 111 H   -6.696  -2.015  -3.738
 112 H   -4.485   2.015  12.545
 113 H   -6.815   5.061  -7.691
 114 H   -4.366  -5.061   8.592
 115 H    4.366   1.811   7.691
 116 H    6.815  -1.811  -8.592
 117 H    6.815  -5.061   7.691
 118 H    4.366   5.061  -8.592
 119 H   -4.366  -1.811  -7.691
 120 H   -6.815   1.811   8.592
 121 H    2.863   4.859   1.245
 122 H    8.318  -4.859 -15.038
 123 H   -8.318   2.012  -1.245
 124 H   -2.863  -2.012  15.038
 125 H   -2.863  -4.859  -1.245
 126 H   -8.318   4.859  15.038
 127 H    8.318  -2.012   1.245
 128 H    2.863   2.012 -15.038
 129 H    3.397   1.700   0.351
 130 H    7.784  -1.700 -15.932
 131 H   -7.784   5.171  -0.351
 132 H   -3.397  -5.171  15.932
 133 H   -3.397  -1.700  -0.351
 134 H   -7.784   1.700  15.932
 135 H    7.784  -5.171   0.351
 136 H    3.397   5.171 -15.932
 137 H    1.343   2.394   2.888
 138 H    9.838  -2.394 -13.395
 139 H   -9.838   4.478  -2.888
 140 H   -1.343  -4.478  13.395
 141 H   -1.343  -2.394  -2.888
 142 H   -9.838   2.394  13.395
 143 H    9.838  -4.478   2.888
 144 H    1.343   4.478 -13.395
 145 H   -0.822   1.129 -11.446
 146 H  -10.359  -1.129   4.837
 147 H   10.359   5.743  11.446
 148 H    0.822  -5.743  -4.837
 149 H    0.822  -1.129  11.446
 150 H   10.359   1.129  -4.837
 151 H  -10.359  -5.743 -11.446
 152 H   -0.822   5.743   4.837
 153 H    1.539   0.961  -7.521
 154 H    9.642  -0.961   8.762
 155 H   -9.642   5.910   7.521
 156 H   -1.539  -5.910  -8.762
 157 H   -1.539  -0.961   7.521
 158 H   -9.642   0.961  -8.762
 159 H    9.642  -5.910  -7.521
 160 H    1.539   5.910   8.762

 *******************************************************************************
 FINISHED BASIS SET HANDLING 
 *******************************************************************************

 INFORMATION **** SET_MPP **** PCRYSTAL CALCULATION
 INFORMATION **** READM2 **** NEW DEFAULT: FOCK/KS MATRIX MIXING SET TO 30 %
 INFORMATION **** READM2 **** NEW DEFAULT: FULL DIRECT SCF MODE
 INFORMATION **** READM2 **** NEW DEFAULT: COULOMB BIPOLAR BUFFER SET TO 32 Mb
 INFORMATION **** READM2 **** NEW DEFAULT: EXCHANGE BIPOLAR BUFFER SET TO 32 Mb

 *******************************************************************************
 NEW DEFAULT: DFT INTEGRATION GRID INCREASED TO XLGRID
 NEW DEFAULT: DIIS ACCELERATOR ACTIVE
 USE KEYWORD NODIIS TO TURN IT OFF
 *******************************************************************************

 INFORMATION **** RDDFTP **** PBEh-3c calculation
 INFORMATION **** RDDFTP **** PBEh hybrid functional combined with D3 and gCP

PLEASE CITE:
(1) PBEh-3c Reference
 S. Grimme, J. G. Brandenburg, C. Bannwarth, and A. Hansen, 
 J. Chem. Phys. 143, 054107 (2015)
(2) DFT-D3 Reference
 S. Grimme, J. Antony, S. Ehrlich, and H. Krieg, J. Chem. Phys. 132, 154104 (2010)
(3) gCP Reference
 H. Kruse and S. Grimme J. Chem. Phys, 136, 154101 (2012)
 J. G. Brandenburg, M. Alessio, B. Civalleri, M. F. Peintinger
 T. Bredow, and S. Grimme, J. Phys. Chem. A, 117, 9282 (2013) 

 WARNING **** RDDFTP **** PBEh-3c has to be combined with def2-mSVP basis set
 WARNING **** RDDFTP **** Note: Harmonic frequencies are scaled by 0.95
 WARNING **** RDDFTP **** as recommended in original publication
 INFORMATION **** TOLDEE **** SCF TOL ON TOTAL ENERGY SET TO           9
 INFORMATION **** TOLINTEG **** COULOMB AND EXCHANGE SERIES TOLERANCES MODIFIED
 INFORMATION **** MAXCYCLE **** MAX NUMBER OF SCF CYCLES SET TO          30
 WARNING **** READM2 **** PROBABLE LOSS IN FREQCALC ACCURACY; SCF TOL LT          10
 *******************************************************************************
 N. OF ATOMS PER CELL       160  COULOMB OVERLAP TOL         (T1) 10**   -8
 NUMBER OF SHELLS           760  COULOMB PENETRATION TOL     (T2) 10**   -8
 NUMBER OF AO              1464  EXCHANGE OVERLAP TOL        (T3) 10**   -8
 N. OF ELECTRONS PER CELL   640  EXCHANGE PSEUDO OVP (F(G))  (T4) 10**   -8
 CORE ELECTRONS PER CELL    176  EXCHANGE PSEUDO OVP (P(G))  (T5) 10**  -24
 N. OF SYMMETRY OPERATORS     8  POLE ORDER IN MONO ZONE                  4
 *******************************************************************************
 TYPE OF CALCULATION :  RESTRICTED CLOSED SHELL
 KOHN-SHAM HAMILTONIAN

 (EXCHANGE)[CORRELATION] FUNCTIONAL:(PBEh-3c)[PBEh-3c]


 HYBRID EXCHANGE - PERCENTAGE OF FOCK EXCHANGE    42.0000

 CAPPA:IS1  4;IS2  4;IS3  2; K PTS MONK NET  18; SYMMOPS:K SPACE   8;G SPACE   8

 *******************************************************************************
 MAX NUMBER OF SCF CYCLES      30  CONVERGENCE ON DELTAP        10**-19
 WEIGHT OF F(I) IN F(I+1)      50% CONVERGENCE ON ENERGY        10**- 9
 SHRINK. FACT.(MONKH.)    4  4  2  NUMBER OF K POINTS IN THE IBZ     18
 SHRINKING FACTOR(GILAT NET)    4  NUMBER OF K POINTS(GILAT NET)     18
 *******************************************************************************
 *** K POINTS COORDINATES (OBLIQUE COORDINATES IN UNITS OF IS =  4)
   1-R(  0  0  0)   2-C(  1  0  0)   3-R(  2  0  0)   4-C(  0  1  0)
   5-C(  1  1  0)   6-C(  2  1  0)   7-R(  0  2  0)   8-C(  1  2  0)
   9-R(  2  2  0)  10-R(  0  0  1)  11-C(  1  0  1)  12-R(  2  0  1)
  13-C(  0  1  1)  14-C(  1  1  1)  15-C(  2  1  1)  16-R(  0  2  1)
  17-C(  1  2  1)  18-R(  2  2  1)

 DIRECT LATTICE VECTORS COMPON. (A.U.)     RECIP. LATTICE VECTORS COMPON. (A.U.) 
        X            Y            Z              X            Y            Z
   22.3620429    0.0000000    0.0000000      0.2809755    0.0000000    0.0000000
    0.0000000   13.7433934    0.0000000      0.0000000    0.4571786    0.0000000
    0.0000000    0.0000000   32.5657647      0.0000000    0.0000000    0.1929384

 DISK SPACE FOR EIGENVECTORS (FTN 10)    60012288 REALS

 SYMMETRY ADAPTION OF THE BLOCH FUNCTIONS ENABLED
 TTTTTTTTTTTTTTTTTTTTTTTTTTTTTT gordsh1     TELAPSE        4.03 TCPU        2.78

 MATRIX SIZE: P(G) 4643696, F(G)  435976, P(G) IRR  294774, F(G) IRR   55218
 MAX G-VECTOR INDEX FOR 1- AND 2-ELECTRON INTEGRALS  75

 TTTTTTTTTTTTTTTTTTTTTTTTTTTTTT INPUT       TELAPSE        4.17 TCPU        2.92

 NEIGHBORS OF THE NON-EQUIVALENT ATOMS

 N = NUMBER OF NEIGHBORS AT DISTANCE R
    ATOM  N     R/ANG      R/AU   NEIGHBORS (ATOM LABELS AND CELL INDICES)
   1 O    1     0.9815     1.8548   89 H    0 0 0
   1 O    1     1.3489     2.5491   25 C    0 0 0
   1 O    1     2.0475     3.8692  102 H    0 0 0
   1 O    1     2.3654     4.4699   49 C    0 0 0
   1 O    1     2.3967     4.5291   65 C    0 0 0
   1 O    1     2.6032     4.9193  113 H    0 0 0

   9 O    1     1.2312     2.3267   73 C    0 0 0
   9 O    1     1.7333     3.2755   96 H    0 0 0
   9 O    1     2.2649     4.2800   17 N    0 0 0
   9 O    1     2.3444     4.4303  105 H    0 0 0
   9 O    1     2.4028     4.5407   57 C    0 0 0
   9 O    1     2.5977     4.9090  137 H    0 0 0

  17 N    1     1.0152     1.9184   97 H    0 0 0
  17 N    1     1.3425     2.5369   73 C    0 0 0
  17 N    1     1.4082     2.6610   33 C    0 0 0
  17 N    1     2.2649     4.2800    9 O    0 0 0
  17 N    1     2.3812     4.4998   81 C    0 0 0
  17 N    1     2.3958     4.5273   57 C    0 0 0

  25 C    1     1.3489     2.5491    1 O    0 0 0
  25 C    1     1.3905     2.6276   49 C    0 0 0
  25 C    1     1.3916     2.6298   65 C    0 0 0
  25 C    1     1.9266     3.6408   89 H    0 0 0
  25 C    1     2.1462     4.0557  113 H    0 0 0
  25 C    1     2.1520     4.0667  145 H    0 0 0

  33 C    1     1.3927     2.6319   81 C    0 0 0
  33 C    1     1.3931     2.6325   41 C    0 0 0
  33 C    1     1.4082     2.6610   17 N    0 0 0
  33 C    1     2.0470     3.8683   97 H    0 0 0
  33 C    1     2.1536     4.0698  153 H    0 0 0
  33 C    1     2.1560     4.0742  105 H    0 0 0

  41 C    1     1.0774     2.0359  105 H    0 0 0
  41 C    1     1.3879     2.6227   49 C    0 0 0
  41 C    1     1.3931     2.6325   33 C    0 0 0
  41 C    1     2.1364     4.0371  113 H    0 0 0
  41 C    1     2.3934     4.5228   81 C    0 0 0
  41 C    1     2.4168     4.5671   25 C    0 0 0

  49 C    1     1.0826     2.0458  113 H    0 0 0
  49 C    1     1.3879     2.6227   41 C    0 0 0
  49 C    1     1.3905     2.6276   25 C    0 0 0
  49 C    1     2.1252     4.0160  105 H    0 0 0
  49 C    1     2.3654     4.4699    1 O    0 0 0
  49 C    1     2.3925     4.5211   65 C    0 0 0

  57 C    1     1.0871     2.0543  137 H    0 0 0
  57 C    1     1.0880     2.0560  129 H    0 0 0
  57 C    1     1.0915     2.0627  121 H    0 0 0
  57 C    1     1.5065     2.8468   73 C    0 0 0
  57 C    1     2.3958     4.5273   17 N    0 0 0
  57 C    1     2.4028     4.5407    9 O    0 0 0

  65 C    1     1.0814     2.0435  145 H    0 0 0
  65 C    1     1.3816     2.6109   81 C    0 0 0
  65 C    1     1.3916     2.6298   25 C    0 0 0
  65 C    1     2.1250     4.0156  153 H    0 0 0
  65 C    1     2.3925     4.5211   49 C    0 0 0
  65 C    1     2.3967     4.5291    1 O    0 0 0

  73 C    1     1.2312     2.3267    9 O    0 0 0
  73 C    1     1.3425     2.5369   17 N    0 0 0
  73 C    1     1.5065     2.8468   57 C    0 0 0
  73 C    1     2.0053     3.7895   97 H    0 0 0
  73 C    1     2.1349     4.0343  121 H    0 0 0
  73 C    1     2.1417     4.0472  137 H    0 0 0

  81 C    1     1.0836     2.0477  153 H    0 0 0
  81 C    1     1.3816     2.6109   65 C    0 0 0
  81 C    1     1.3927     2.6319   33 C    0 0 0
  81 C    1     2.1283     4.0219  145 H    0 0 0
  81 C    1     2.3812     4.4998   17 N    0 0 0
  81 C    1     2.3934     4.5228   41 C    0 0 0

  89 H    1     0.9815     1.8548    1 O    0 0 0
  89 H    1     1.7333     3.2755   16 O    0 0 0
  89 H    1     1.9266     3.6408   25 C    0 0 0
  89 H    1     2.3368     4.4159  145 H    0 0 0
  89 H    1     2.4683     4.6645   65 C    0 0 0
  89 H    1     2.6183     4.9479  102 H    0 0 0

  97 H    1     1.0152     1.9184   17 N    0 0 0
  97 H    1     2.0053     3.7895   73 C    0 0 0
  97 H    1     2.0470     3.8683   33 C    0 0 0
  97 H    1     2.0475     3.8692    6 O    0 0 0
  97 H    1     2.2274     4.2092  129 H    0 0 0
  97 H    1     2.2839     4.3159  153 H    0 0 0

 105 H    1     1.0774     2.0359   41 C    0 0 0
 105 H    1     2.1252     4.0160   49 C    0 0 0
 105 H    1     2.1560     4.0742   33 C    0 0 0
 105 H    1     2.3444     4.4303    9 O    0 0 0
 105 H    1     2.4309     4.5938  113 H    0 0 0
 105 H    1     2.5078     4.7390  131 H    0 0 0

 113 H    1     1.0826     2.0458   49 C    0 0 0
 113 H    1     2.1364     4.0371   41 C    0 0 0
 113 H    1     2.1462     4.0557   25 C    0 0 0
 113 H    1     2.4309     4.5938  105 H    0 0 0
 113 H    1     2.6032     4.9193    1 O    0 0 0
 113 H    1     2.6953     5.0933  158 H    0 0 0

 121 H    1     1.0915     2.0627   57 C    0 0 0
 121 H    1     1.7602     3.3262  129 H    0 0 0
 121 H    1     1.7622     3.3300  137 H    0 0 0
 121 H    1     2.1349     4.0343   73 C    0 0 0
 121 H    1     2.6494     5.0066  109 H    0 1 0
 121 H    1     2.7632     5.2217  152 H    0 0 0

 129 H    1     1.0880     2.0560   57 C    0 0 0
 129 H    1     1.7602     3.3262  121 H    0 0 0
 129 H    1     1.7660     3.3373  137 H    0 0 0
 129 H    1     2.1719     4.1042   73 C    0 0 0
 129 H    1     2.2274     4.2092   97 H    0 0 0
 129 H    1     2.5078     4.7390  107 H    0 0 0

 137 H    1     1.0871     2.0543   57 C    0 0 0
 137 H    1     1.7622     3.3300  121 H    0 0 0
 137 H    1     1.7660     3.3373  129 H    0 0 0
 137 H    1     2.1417     4.0472   73 C    0 0 0
 137 H    1     2.3489     4.4387  152 H    0 0 0
[...]
Note: The following floating-point exceptions are signalling: IEEE_UNDERFLOW_FLAG IEEE_DENORMAL
Note: The following floating-point exceptions are signalling: IEEE_UNDERFLOW_FLAG IEEE_DENORMAL
Note: The following floating-point exceptions are signalling: IEEE_UNDERFLOW_FLAG IEEE_DENORMAL
Note: The following floating-point exceptions are signalling: IEEE_UNDERFLOW_FLAG IEEE_DENORMAL
Note: The following floating-point exceptions are signalling: IEEE_UNDERFLOW_FLAG IEEE_DENORMAL
Note: The following floating-point exceptions are signalling: IEEE_UNDERFLOW_FLAG IEEE_DENORMAL
Note: The following floating-point exceptions are signalling: IEEE_UNDERFLOW_FLAG IEEE_DENORMAL
Note: The following floating-point exceptions are signalling: IEEE_UNDERFLOW_FLAG IEEE_DENORMAL
Note: The following floating-point exceptions are signalling: IEEE_UNDERFLOW_FLAG IEEE_DENORMAL
Note: The following floating-point exceptions are signalling: IEEE_UNDERFLOW_FLAG IEEE_DENORMAL
Note: The following floating-point exceptions are signalling: IEEE_UNDERFLOW_FLAG IEEE_DENORMAL
Note: The following floating-point exceptions are signalling: IEEE_UNDERFLOW_FLAG IEEE_DENORMAL
Note: The following floating-point exceptions are signalling: IEEE_UNDERFLOW_FLAG IEEE_DENORMAL
Note: The following floating-point exceptions are signalling: IEEE_UNDERFLOW_FLAG IEEE_DENORMAL
Note: The following floating-point exceptions are signalling: IEEE_UNDERFLOW_FLAG IEEE_DENORMAL
Note: The following floating-point exceptions are signalling: IEEE_UNDERFLOW_FLAG IEEE_DENORMAL
Note: The following floating-point exceptions are signalling: IEEE_UNDERFLOW_FLAG IEEE_DENORMAL
Note: The following floating-point exceptions are signalling: IEEE_UNDERFLOW_FLAG IEEE_DENORMAL
Note: The following floating-point exceptions are signalling: IEEE_UNDERFLOW_FLAG IEEE_DENORMAL
Note: The following floating-point exceptions are signalling: IEEE_UNDERFLOW_FLAG IEEE_DENORMAL
Note: The following floating-point exceptions are signalling: IEEE_UNDERFLOW_FLAG IEEE_DENORMAL
Note: The following floating-point exceptions are signalling: IEEE_UNDERFLOW_FLAG IEEE_DENORMAL
Note: The following floating-point exceptions are signalling: IEEE_UNDERFLOW_FLAG IEEE_DENORMAL
Note: The following floating-point exceptions are signalling: IEEE_UNDERFLOW_FLAG IEEE_DENORMAL
Note: The following floating-point exceptions are signalling: IEEE_UNDERFLOW_FLAG IEEE_DENORMAL
Note: The following floating-point exceptions are signalling: IEEE_UNDERFLOW_FLAG IEEE_DENORMAL
Note: The following floating-point exceptions are signalling: IEEE_UNDERFLOW_FLAG IEEE_DENORMAL
Note: The following floating-point exceptions are signalling: IEEE_UNDERFLOW_FLAG IEEE_DENORMAL
Note: The following floating-point exceptions are signalling: IEEE_UNDERFLOW_FLAG IEEE_DENORMAL
Note: The following floating-point exceptions are signalling: IEEE_UNDERFLOW_FLAG IEEE_DENORMAL
Note: The following floating-point exceptions are signalling: IEEE_UNDERFLOW_FLAG IEEE_DENORMAL
Note: The following floating-point exceptions are signalling: IEEE_UNDERFLOW_FLAG IEEE_DENORMAL
Note: The following floating-point exceptions are signalling: IEEE_UNDERFLOW_FLAG IEEE_DENORMAL
Note: The following floating-point exceptions are signalling: IEEE_UNDERFLOW_FLAG IEEE_DENORMAL
Note: The following floating-point exceptions are signalling: IEEE_UNDERFLOW_FLAG IEEE_DENORMAL
Note: The following floating-point exceptions are signalling: IEEE_UNDERFLOW_FLAG IEEE_DENORMAL
Note: The following floating-point exceptions are signalling: IEEE_UNDERFLOW_FLAG IEEE_DENORMAL
Note: The following floating-point exceptions are signalling: IEEE_UNDERFLOW_FLAG IEEE_DENORMAL
Note: The following floating-point exceptions are signalling: IEEE_UNDERFLOW_FLAG IEEE_DENORMAL
Note: The following floating-point exceptions are signalling: IEEE_UNDERFLOW_FLAG IEEE_DENORMAL
Note: The following floating-point exceptions are signalling: IEEE_UNDERFLOW_FLAG IEEE_DENORMAL
Note: The following floating-point exceptions are signalling: IEEE_UNDERFLOW_FLAG IEEE_DENORMAL
Note: The following floating-point exceptions are signalling: IEEE_UNDERFLOW_FLAG IEEE_DENORMAL
Note: The following floating-point exceptions are signalling: IEEE_UNDERFLOW_FLAG IEEE_DENORMAL
Note: The following floating-point exceptions are signalling: IEEE_UNDERFLOW_FLAG IEEE_DENORMAL
Note: The following floating-point exceptions are signalling: IEEE_UNDERFLOW_FLAG IEEE_DENORMAL
Note: The following floating-point exceptions are signalling: IEEE_UNDERFLOW_FLAG IEEE_DENORMAL
Note: The following floating-point exceptions are signalling: IEEE_INVALID_FLAG IEEE_UNDERFLOW_FLAG IEEE_DENORMAL
Note: The following floating-point exceptions are signalling: IEEE_UNDERFLOW_FLAG IEEE_DENORMAL
Note: The following floating-point exceptions are signalling: IEEE_UNDERFLOW_FLAG IEEE_DENORMAL
Note: The following floating-point exceptions are signalling: IEEE_UNDERFLOW_FLAG IEEE_DENORMAL
Note: The following floating-point exceptions are signalling: IEEE_UNDERFLOW_FLAG IEEE_DENORMAL
Note: The following floating-point exceptions are signalling: IEEE_UNDERFLOW_FLAG IEEE_DENORMAL
Note: The following floating-point exceptions are signalling: IEEE_UNDERFLOW_FLAG IEEE_DENORMAL
Note: The following floating-point exceptions are signalling: IEEE_UNDERFLOW_FLAG IEEE_DENORMAL
Note: The following floating-point exceptions are signalling: IEEE_UNDERFLOW_FLAG IEEE_DENORMAL
Note: The following floating-point exceptions are signalling: IEEE_UNDERFLOW_FLAG IEEE_DENORMAL
Note: The following floating-point exceptions are signalling: IEEE_UNDERFLOW_FLAG IEEE_DENORMAL
Note: The following floating-point exceptions are signalling: IEEE_UNDERFLOW_FLAG IEEE_DENORMAL
Note: The following floating-point exceptions are signalling: IEEE_UNDERFLOW_FLAG IEEE_DENORMAL
Note: The following floating-point exceptions are signalling: IEEE_UNDERFLOW_FLAG IEEE_DENORMAL
Note: The following floating-point exceptions are signalling: IEEE_UNDERFLOW_FLAG IEEE_DENORMAL
Note: The following floating-point exceptions are signalling: IEEE_UNDERFLOW_FLAG IEEE_DENORMAL
Note: The following floating-point exceptions are signalling: IEEE_UNDERFLOW_FLAG IEEE_DENORMAL
Note: The following floating-point exceptions are signalling: IEEE_UNDERFLOW_FLAG IEEE_DENORMAL
Note: The following floating-point exceptions are signalling: IEEE_UNDERFLOW_FLAG IEEE_DENORMAL
Note: The following floating-point exceptions are signalling: IEEE_UNDERFLOW_FLAG IEEE_DENORMAL
Note: The following floating-point exceptions are signalling: IEEE_UNDERFLOW_FLAG IEEE_DENORMAL
Note: The following floating-point exceptions are signalling: IEEE_UNDERFLOW_FLAG IEEE_DENORMAL
Note: The following floating-point exceptions are signalling: IEEE_UNDERFLOW_FLAG IEEE_DENORMAL
Note: The following floating-point exceptions are signalling: IEEE_UNDERFLOW_FLAG IEEE_DENORMAL
Note: The following floating-point exceptions are signalling: IEEE_UNDERFLOW_FLAG IEEE_DENORMAL
Note: The following floating-point exceptions are signalling: IEEE_UNDERFLOW_FLAG IEEE_DENORMAL
Note: The following floating-point exceptions are signalling: IEEE_UNDERFLOW_FLAG IEEE_DENORMAL
Note: The following floating-point exceptions are signalling: IEEE_UNDERFLOW_FLAG IEEE_DENORMAL
Note: The following floating-point exceptions are signalling: IEEE_UNDERFLOW_FLAG IEEE_DENORMAL
Note: The following floating-point exceptions are signalling: IEEE_UNDERFLOW_FLAG IEEE_DENORMAL
Note: The following floating-point exceptions are signalling: IEEE_UNDERFLOW_FLAG IEEE_DENORMAL
Note: The following floating-point exceptions are signalling: IEEE_UNDERFLOW_FLAG IEEE_DENORMAL
Note: The following floating-point exceptions are signalling: IEEE_UNDERFLOW_FLAG IEEE_DENORMAL
Note: The following floating-point exceptions are signalling: IEEE_UNDERFLOW_FLAG IEEE_DENORMAL
Note: The following floating-point exceptions are signalling: IEEE_UNDERFLOW_FLAG IEEE_DENORMAL
Note: The following floating-point exceptions are signalling: IEEE_UNDERFLOW_FLAG IEEE_DENORMAL
Note: The following floating-point exceptions are signalling: IEEE_UNDERFLOW_FLAG IEEE_DENORMAL
Note: The following floating-point exceptions are signalling: IEEE_UNDERFLOW_FLAG IEEE_DENORMAL
Note: The following floating-point exceptions are signalling: IEEE_UNDERFLOW_FLAG IEEE_DENORMAL
Note: The following floating-point exceptions are signalling: IEEE_UNDERFLOW_FLAG IEEE_DENORMAL
Note: The following floating-point exceptions are signalling: IEEE_UNDERFLOW_FLAG IEEE_DENORMAL
Note: The following floating-point exceptions are signalling: IEEE_UNDERFLOW_FLAG IEEE_DENORMAL
Note: The following floating-point exceptions are signalling: IEEE_UNDERFLOW_FLAG IEEE_DENORMAL
Note: The following floating-point exceptions are signalling: IEEE_UNDERFLOW_FLAG IEEE_DENORMAL
Note: The following floating-point exceptions are signalling: IEEE_UNDERFLOW_FLAG IEEE_DENORMAL
Note: The following floating-point exceptions are signalling: IEEE_UNDERFLOW_FLAG IEEE_DENORMAL
Note: The following floating-point exceptions are signalling: IEEE_UNDERFLOW_FLAG IEEE_DENORMAL
Note: The following floating-point exceptions are signalling: IEEE_UNDERFLOW_FLAG IEEE_DENORMAL
Note: The following floating-point exceptions are signalling: IEEE_UNDERFLOW_FLAG IEEE_DENORMAL
Note: The following floating-point exceptions are signalling: IEEE_UNDERFLOW_FLAG IEEE_DENORMAL
Note: The following floating-point exceptions are signalling: IEEE_UNDERFLOW_FLAG IEEE_DENORMAL
Note: The following floating-point exceptions are signalling: IEEE_UNDERFLOW_FLAG IEEE_DENORMAL
Note: The following floating-point exceptions are signalling: IEEE_UNDERFLOW_FLAG IEEE_DENORMAL
Note: The following floating-point exceptions are signalling: IEEE_UNDERFLOW_FLAG IEEE_DENORMAL
Note: The following floating-point exceptions are signalling: IEEE_UNDERFLOW_FLAG IEEE_DENORMAL
Note: The following floating-point exceptions are signalling: IEEE_UNDERFLOW_FLAG IEEE_DENORMAL
Note: The following floating-point exceptions are signalling: IEEE_UNDERFLOW_FLAG IEEE_DENORMAL
Note: The following floating-point exceptions are signalling: IEEE_UNDERFLOW_FLAG IEEE_DENORMAL
Note: The following floating-point exceptions are signalling: IEEE_UNDERFLOW_FLAG IEEE_DENORMAL
Note: The following floating-point exceptions are signalling: IEEE_UNDERFLOW_FLAG IEEE_DENORMAL
Note: The following floating-point exceptions are signalling: IEEE_UNDERFLOW_FLAG IEEE_DENORMAL
Note: The following floating-point exceptions are signalling: IEEE_UNDERFLOW_FLAG IEEE_DENORMAL
Note: The following floating-point exceptions are signalling: IEEE_UNDERFLOW_FLAG IEEE_DENORMAL
Note: The following floating-point exceptions are signalling: IEEE_UNDERFLOW_FLAG IEEE_DENORMAL
Note: The following floating-point exceptions are signalling: IEEE_UNDERFLOW_FLAG IEEE_DENORMAL
Note: The following floating-point exceptions are signalling: IEEE_UNDERFLOW_FLAG IEEE_DENORMAL
Note: The following floating-point exceptions are signalling: IEEE_UNDERFLOW_FLAG IEEE_DENORMAL
Note: The following floating-point exceptions are signalling: IEEE_UNDERFLOW_FLAG IEEE_DENORMAL
Note: The following floating-point exceptions are signalling: IEEE_UNDERFLOW_FLAG IEEE_DENORMAL
Note: The following floating-point exceptions are signalling: IEEE_UNDERFLOW_FLAG IEEE_DENORMAL
Note: The following floating-point exceptions are signalling: IEEE_UNDERFLOW_FLAG IEEE_DENORMAL
Note: The following floating-point exceptions are signalling: IEEE_UNDERFLOW_FLAG IEEE_DENORMAL
Note: The following floating-point exceptions are signalling: IEEE_UNDERFLOW_FLAG IEEE_DENORMAL
Note: The following floating-point exceptions are signalling: IEEE_UNDERFLOW_FLAG IEEE_DENORMAL
Note: The following floating-point exceptions are signalling: IEEE_UNDERFLOW_FLAG IEEE_DENORMAL
Note: The following floating-point exceptions are signalling: IEEE_UNDERFLOW_FLAG IEEE_DENORMAL
Note: The following floating-point exceptions are signalling: IEEE_UNDERFLOW_FLAG IEEE_DENORMAL
Note: The following floating-point exceptions are signalling: IEEE_UNDERFLOW_FLAG IEEE_DENORMAL
Note: The following floating-point exceptions are signalling: IEEE_UNDERFLOW_FLAG IEEE_DENORMAL
Note: The following floating-point exceptions are signalling: IEEE_UNDERFLOW_FLAG IEEE_DENORMAL
Note: The following floating-point exceptions are signalling: IEEE_UNDERFLOW_FLAG IEEE_DENORMAL
Note: The following floating-point exceptions are signalling: IEEE_UNDERFLOW_FLAG IEEE_DENORMAL
Note: The following floating-point exceptions are signalling: IEEE_UNDERFLOW_FLAG IEEE_DENORMAL
Note: The following floating-point exceptions are signalling: IEEE_UNDERFLOW_FLAG IEEE_DENORMAL
Note: The following floating-point exceptions are signalling: IEEE_UNDERFLOW_FLAG IEEE_DENORMAL
Note: The following floating-point exceptions are signalling: IEEE_UNDERFLOW_FLAG IEEE_DENORMAL
Note: The following floating-point exceptions are signalling: IEEE_UNDERFLOW_FLAG IEEE_DENORMAL
Note: The following floating-point exceptions are signalling: IEEE_UNDERFLOW_FLAG IEEE_DENORMAL
Note: The following floating-point exceptions are signalling: IEEE_UNDERFLOW_FLAG IEEE_DENORMAL
Note: The following floating-point exceptions are signalling: IEEE_UNDERFLOW_FLAG IEEE_DENORMAL
Note: The following floating-point exceptions are signalling: IEEE_UNDERFLOW_FLAG IEEE_DENORMAL
Note: The following floating-point exceptions are signalling: IEEE_UNDERFLOW_FLAG IEEE_DENORMAL
Note: The following floating-point exceptions are signalling: IEEE_UNDERFLOW_FLAG IEEE_DENORMAL
Note: The following floating-point exceptions are signalling: IEEE_UNDERFLOW_FLAG IEEE_DENORMAL
Note: The following floating-point exceptions are signalling: IEEE_UNDERFLOW_FLAG IEEE_DENORMAL
Note: The following floating-point exceptions are signalling: IEEE_UNDERFLOW_FLAG IEEE_DENORMAL
Note: The following floating-point exceptions are signalling: IEEE_UNDERFLOW_FLAG IEEE_DENORMAL
Note: The following floating-point exceptions are signalling: IEEE_UNDERFLOW_FLAG IEEE_DENORMAL
Note: The following floating-point exceptions are signalling: IEEE_UNDERFLOW_FLAG IEEE_DENORMAL
Note: The following floating-point exceptions are signalling: IEEE_UNDERFLOW_FLAG IEEE_DENORMAL
Note: The following floating-point exceptions are signalling: IEEE_UNDERFLOW_FLAG IEEE_DENORMAL
Note: The following floating-point exceptions are signalling: IEEE_UNDERFLOW_FLAG IEEE_DENORMAL
Note: The following floating-point exceptions are signalling: IEEE_UNDERFLOW_FLAG IEEE_DENORMAL
Note: The following floating-point exceptions are signalling: IEEE_UNDERFLOW_FLAG IEEE_DENORMAL
Note: The following floating-point exceptions are signalling: IEEE_UNDERFLOW_FLAG IEEE_DENORMAL
Note: The following floating-point exceptions are signalling: IEEE_UNDERFLOW_FLAG IEEE_DENORMAL
Note: The following floating-point exceptions are signalling: IEEE_UNDERFLOW_FLAG IEEE_DENORMAL
Note: The following floating-point exceptions are signalling: IEEE_UNDERFLOW_FLAG IEEE_DENORMAL
Note: The following floating-point exceptions are signalling: IEEE_UNDERFLOW_FLAG IEEE_DENORMAL
Note: The following floating-point exceptions are signalling: IEEE_UNDERFLOW_FLAG IEEE_DENORMAL
Note: The following floating-point exceptions are signalling: IEEE_UNDERFLOW_FLAG IEEE_DENORMAL
Note: The following floating-point exceptions are signalling: IEEE_UNDERFLOW_FLAG IEEE_DENORMAL
Note: The following floating-point exceptions are signalling: IEEE_UNDERFLOW_FLAG IEEE_DENORMAL
Note: The following floating-point exceptions are signalling: IEEE_UNDERFLOW_FLAG IEEE_DENORMAL
Note: The following floating-point exceptions are signalling: IEEE_UNDERFLOW_FLAG IEEE_DENORMAL
Note: The following floating-point exceptions are signalling: IEEE_UNDERFLOW_FLAG IEEE_DENORMAL
Note: The following floating-point exceptions are signalling: IEEE_UNDERFLOW_FLAG IEEE_DENORMAL
Note: The following floating-point exceptions are signalling: IEEE_UNDERFLOW_FLAG IEEE_DENORMAL
Note: The following floating-point exceptions are signalling: IEEE_UNDERFLOW_FLAG IEEE_DENORMAL
Note: The following floating-point exceptions are signalling: IEEE_UNDERFLOW_FLAG IEEE_DENORMAL
Note: The following floating-point exceptions are signalling: IEEE_UNDERFLOW_FLAG IEEE_DENORMAL
Note: The following floating-point exceptions are signalling: IEEE_UNDERFLOW_FLAG IEEE_DENORMAL
Note: The following floating-point exceptions are signalling: IEEE_UNDERFLOW_FLAG IEEE_DENORMAL
Note: The following floating-point exceptions are signalling: IEEE_UNDERFLOW_FLAG IEEE_DENORMAL
Note: The following floating-point exceptions are signalling: IEEE_UNDERFLOW_FLAG IEEE_DENORMAL
Note: The following floating-point exceptions are signalling: IEEE_UNDERFLOW_FLAG IEEE_DENORMAL
Note: The following floating-point exceptions are signalling: IEEE_UNDERFLOW_FLAG IEEE_DENORMAL
Note: The following floating-point exceptions are signalling: IEEE_UNDERFLOW_FLAG IEEE_DENORMAL
Note: The following floating-point exceptions are signalling: IEEE_UNDERFLOW_FLAG IEEE_DENORMAL
Note: The following floating-point exceptions are signalling: IEEE_UNDERFLOW_FLAG IEEE_DENORMAL
Note: The following floating-point exceptions are signalling: IEEE_UNDERFLOW_FLAG IEEE_DENORMAL
Note: The following floating-point exceptions are signalling: IEEE_UNDERFLOW_FLAG IEEE_DENORMAL
Note: The following floating-point exceptions are signalling: IEEE_UNDERFLOW_FLAG IEEE_DENORMAL
Note: The following floating-point exceptions are signalling: IEEE_UNDERFLOW_FLAG IEEE_DENORMAL
Note: The following floating-point exceptions are signalling: IEEE_UNDERFLOW_FLAG IEEE_DENORMAL
Note: The following floating-point exceptions are signalling: IEEE_UNDERFLOW_FLAG IEEE_DENORMAL
Note: The following floating-point exceptions are signalling: IEEE_UNDERFLOW_FLAG IEEE_DENORMAL
Note: The following floating-point exceptions are signalling: IEEE_UNDERFLOW_FLAG IEEE_DENORMAL
Note: The following floating-point exceptions are signalling: IEEE_UNDERFLOW_FLAG IEEE_DENORMAL
Note: The following floating-point exceptions are signalling: IEEE_UNDERFLOW_FLAG IEEE_DENORMAL
Note: The following floating-point exceptions are signalling: IEEE_UNDERFLOW_FLAG IEEE_DENORMAL
Note: The following floating-point exceptions are signalling: IEEE_UNDERFLOW_FLAG IEEE_DENORMAL
Note: The following floating-point exceptions are signalling: IEEE_UNDERFLOW_FLAG IEEE_DENORMAL
Note: The following floating-point exceptions are signalling: IEEE_UNDERFLOW_FLAG IEEE_DENORMAL
Note: The following floating-point exceptions are signalling: IEEE_UNDERFLOW_FLAG IEEE_DENORMAL
Note: The following floating-point exceptions are signalling: IEEE_UNDERFLOW_FLAG IEEE_DENORMAL
Note: The following floating-point exceptions are signalling: IEEE_UNDERFLOW_FLAG IEEE_DENORMAL
Note: The following floating-point exceptions are signalling: IEEE_UNDERFLOW_FLAG IEEE_DENORMAL
Note: The following floating-point exceptions are signalling: IEEE_UNDERFLOW_FLAG IEEE_DENORMAL
Note: The following floating-point exceptions are signalling: IEEE_UNDERFLOW_FLAG IEEE_DENORMAL
Note: The following floating-point exceptions are signalling: IEEE_UNDERFLOW_FLAG IEEE_DENORMAL
Note: The following floating-point exceptions are signalling: IEEE_UNDERFLOW_FLAG IEEE_DENORMAL
Note: The following floating-point exceptions are signalling: IEEE_UNDERFLOW_FLAG IEEE_DENORMAL
Note: The following floating-point exceptions are signalling: IEEE_UNDERFLOW_FLAG IEEE_DENORMAL
Note: The following floating-point exceptions are signalling: IEEE_UNDERFLOW_FLAG IEEE_DENORMAL
Note: The following floating-point exceptions are signalling: IEEE_UNDERFLOW_FLAG IEEE_DENORMAL
Note: The following floating-point exceptions are signalling: IEEE_UNDERFLOW_FLAG IEEE_DENORMAL
Note: The following floating-point exceptions are signalling: IEEE_UNDERFLOW_FLAG IEEE_DENORMAL
Note: The following floating-point exceptions are signalling: IEEE_UNDERFLOW_FLAG IEEE_DENORMAL
Note: The following floating-point exceptions are signalling: IEEE_UNDERFLOW_FLAG IEEE_DENORMAL
Note: The following floating-point exceptions are signalling: IEEE_UNDERFLOW_FLAG IEEE_DENORMAL
