Lmod has detected the following error: The following module(s) are unknown:
"epcc-job-env"

Please check the spelling or version number. Also try "module spider ..."
It is also possible your cache file is out-of-date; it may help to try:
  $ module --ignore-cache load "epcc-job-env"

Also make sure that all modulefiles written in TCL start with the string
#%Module




Warning: You have enabled access to software packages installed
by external parties on ARCHER2 or those that are not fully-supported.
The ARCHER2 CSE service does not test these packages. The service desk
will make reasonable efforts to assist with questions on the use of
these packages but some issues may not be able to be resolved by the
service and they may direct you to seek help from external parties.


         512 PROCESSORS WORKING

         
 *******************************************************************************
 *                                                                             *
 *                               CRYSTAL17                                     *
 *                      public : 1.0.2 - March 1st, 2018 STFC/Archer2 build    *
 *                       HTTP://WWW.CRYSTAL.UNITO.IT                           *
 *                                                                             *
 *                              MAIN AUTHORS                                   *
 *                                                                             *
 *  R. DOVESI(1,11), V.R. SAUNDERS(2), C. ROETTI(1,11), R. ORLANDO(1,11),      *
 *  C.M. ZICOVICH-WILSON(1,3), F. PASCALE(4), B. CIVALLERI(1,11),              *
 *  K. DOLL(5), N.M. HARRISON(2,6), I.J. BUSH(7), Ph. D'ARCO(8),               *
 *  M. LLUNELL(9), M. CAUSA'(10), Y. NOEL(8), L. MASCHIO(1,11), A. ERBA(1,11)  *
 *  M. RE'RAT(14), S. CASASSA(1,11)                                            *
 *                                                                             *
 *        CONTRIBUTIONS TO THE CODE HAVE ALSO BEEN GIVEN BY                    *
 *                                                                             *
 *  M. FERRABONE(1,11), M. DE LA PIERRE(1,11), M. FERRERO(1,11),               *
 *  J. BAIMA(1,11), E. ALBANESE(1,11), M.F. PEINTINGER(12), R. BAST(13),       *
 *  B. KIRTMAN(15), V. LACIVITA(1,11), R. DEMICHELIS(1,16)                     *
 *  G. BRANDEBURG(17), S. SALUSTRO(1,11), G. SANSONE(1,11)                     *
 *  M.T. RUGGIERO(18)                                                          *
 *                                                                             *
 * (1) THEORETICAL CHEMISTRY GROUP - UNIVERSITA' DI TORINO - TORINO (ITALY)    *
 * (2) COMPUTATIONAL SCIENCE & ENGINEERING DEPARTMENT - STFC DARESBURY (UK)    *
 * (3) UNIVERSIDAD AUTONOMA DEL ESTADO DE MORELOS - CUERNAVACA (MEXICO)        *
 * (4) UNIVERSITE' DE LORRAINE - NANCY (FRANCE)                                *
 * (5) UNIVERSITAET STUTTGART- STUTTGART (GERMANY)                             *
 * (6) IMPERIAL COLLEGE - LONDON (UK)                                          *
 * (7) OXFORD E-RESEARCH CENTRE - OXFORD (UK)                                  *
 * (8) UPMC - SORBONNE UNIVERSITES - PARIS (FRANCE)                            *
 * (9) UNIVERSIDAD DE BARCELONA - BARCELONA (SPAIN)                            *
 *(10) UNIVERSITA' DI NAPOLI "FEDERICO II" - NAPOLI (ITALY)                    *
 *(11) NIS - NANOSTRUCTURED INTERFACES AND SURFACES - TORINO (ITALY)           *
 *(12) MPI FUER CHEMISCHE ENERGIEKONVERSION - MUELHEIM AN DER RUHR (GERMANY)   *
 *(13) UNIVERSITY OF TROMSO - TROMSO (NORWAY)                                  *
 *(14) UNIVERSITE' DE PAU ET DES PAYS DE L'ADOUR - PAU (FRANCE)                *
 *(15) UNIVERSITY OF CALIFORNIA SANTA BARBARA - SANTA BARBARA (USA)            *
 *(16) CURTIN UNIVERSITY - PERTH (AUSTRALIA)                                   *
 *(17) UNIVERSITY COLLEGE LONDON - LONDON (UK)                                 *
 *(18) CAMBRIDGE UNIVERSITY - CAMBRIDGE (UK)                                   *
 *                                                                             *
 *******************************************************************************
 EEEEEEEEEE STARTING  DATE 09 03 2022 TIME 20:38:13.7
 F2 vol stepp6 freq - PBEh-3c                                                    

 GEOMETRY INPUT FROM EXTERNAL FILE (FORTRAN UNIT 34)
 3D - CRYSTAL 

 *******************************************************************************
 LATTICE PARAMETERS  (ANGSTROMS AND DEGREES) - PRIMITIVE CELL
       A          B          C        ALPHA      BETA     GAMMA        VOLUME
   11.91667    7.47072   17.31221    90.00000  90.00000  90.00000   1541.237772

 NUMBER OF IRREDUCIBLE ATOMS IN THE CELL:   20

 CARTESIAN COORDINATES (ANGSTROM) - IRREDUCIBLE ATOMS AND SYMMETRY RELATED

 AT.IRR.  AT  AT.N.          X                   Y                   Z
     1     1     8   -2.799338851641E+00  1.844363492361E+00 -6.420379775339E+00
     1     2     8   -3.158995075866E+00 -1.844363492361E+00  2.235722811482E+00
     1     3     8    3.158995075866E+00  1.890996157721E+00  6.420379775339E+00
     1     4     8    2.799338851641E+00 -1.890996157721E+00 -2.235722811482E+00
     1     5     8    2.799338851641E+00 -1.844363492361E+00  6.420379775339E+00
     1     6     8    3.158995075866E+00  1.844363492361E+00 -2.235722811482E+00
     1     7     8   -3.158995075866E+00 -1.890996157721E+00 -6.420379775339E+00
     1     8     8   -2.799338851641E+00  1.890996157721E+00  2.235722811482E+00
     9     9     8   -1.295607352281E+00  2.040563657282E+00 -3.066579753900E-02
     9    10     8   -4.662726575226E+00 -2.040563657282E+00 -8.686768384360E+00
     9    11     8    4.662726575226E+00  1.694795992800E+00  3.066579753900E-02
     9    12     8    1.295607352281E+00 -1.694795992800E+00  8.686768384360E+00
     9    13     8    1.295607352281E+00 -2.040563657282E+00  3.066579753900E-02
     9    14     8    4.662726575226E+00  2.040563657282E+00  8.686768384360E+00
     9    15     8   -4.662726575226E+00 -1.694795992800E+00 -3.066579753900E-02
     9    16     8   -1.295607352281E+00  1.694795992800E+00 -8.686768384360E+00
    17    17     7    1.487703805590E-01  1.572065263397E+00 -1.713085852937E+00
    17    18     7    5.809563546948E+00 -1.572065263397E+00  6.943016733883E+00
    17    19     7   -5.809563546948E+00  2.163294386686E+00  1.713085852937E+00
    17    20     7   -1.487703805590E-01 -2.163294386686E+00 -6.943016733883E+00
    17    21     7   -1.487703805590E-01 -1.572065263397E+00  1.713085852937E+00
    17    22     7   -5.809563546948E+00  1.572065263397E+00 -6.943016733883E+00
    17    23     7    5.809563546948E+00 -2.163294386686E+00 -1.713085852937E+00
    17    24     7    1.487703805590E-01  2.163294386686E+00  6.943016733883E+00
    25    25     6   -2.102923639420E+00  1.740262134230E+00 -5.269607933101E+00
    25    26     6   -3.855410288087E+00 -1.740262134230E+00  3.386494653720E+00
    25    27     6    3.855410288087E+00  1.995097515853E+00  5.269607933101E+00
    25    28     6    2.102923639420E+00 -1.995097515853E+00 -3.386494653720E+00
    25    29     6    2.102923639420E+00 -1.740262134230E+00  5.269607933101E+00
    25    30     6    3.855410288087E+00  1.740262134230E+00 -3.386494653720E+00
    25    31     6   -3.855410288087E+00 -1.995097515853E+00 -5.269607933101E+00
    25    32     6   -2.102923639420E+00  1.995097515853E+00  3.386494653720E+00
    33    33     6   -6.785312949570E-01  1.616116123592E+00 -2.852812773640E+00
    33    34     6   -5.279802632550E+00 -1.616116123592E+00  5.803289813180E+00
    33    35     6    5.279802632550E+00  2.119243526490E+00  2.852812773640E+00
    33    36     6    6.785312949570E-01 -2.119243526490E+00 -5.803289813180E+00
    33    37     6    6.785312949570E-01 -1.616116123592E+00  2.852812773640E+00
    33    38     6    5.279802632550E+00  1.616116123592E+00 -5.803289813180E+00
    33    39     6   -5.279802632550E+00 -2.119243526490E+00 -2.852812773640E+00
    33    40     6   -6.785312949570E-01  2.119243526490E+00  5.803289813180E+00
    41    41     6   -1.932914732568E+00  2.220464910086E+00 -2.906000425554E+00
    41    42     6   -4.025419194939E+00 -2.220464910086E+00  5.750102161267E+00
    41    43     6    4.025419194939E+00  1.514894739996E+00  2.906000425554E+00
    41    44     6    1.932914732568E+00 -1.514894739996E+00 -5.750102161267E+00
    41    45     6    1.932914732568E+00 -2.220464910086E+00  2.906000425554E+00
    41    46     6    4.025419194939E+00  2.220464910086E+00 -5.750102161267E+00
    41    47     6   -4.025419194939E+00 -1.514894739996E+00 -2.906000425554E+00
    41    48     6   -1.932914732568E+00  1.514894739996E+00  5.750102161267E+00
    49    49     6   -2.633727801148E+00  2.280241191069E+00 -4.102748150393E+00
    49    50     6   -3.324606126359E+00 -2.280241191069E+00  4.553354436428E+00
    49    51     6    3.324606126359E+00  1.455118459013E+00  4.102748150393E+00
    49    52     6    2.633727801148E+00 -1.455118459013E+00 -4.553354436428E+00
    49    53     6    2.633727801148E+00 -2.280241191069E+00  4.102748150393E+00
    49    54     6    3.324606126359E+00  2.280241191069E+00 -4.553354436428E+00
    49    55     6   -3.324606126359E+00 -1.455118459013E+00 -4.102748150393E+00
    49    56     6   -2.633727801148E+00  1.455118459013E+00  4.553354436428E+00
    57    57     6    1.004663633718E+00  1.628853150592E+00  5.255801702560E-01
    57    58     6    4.953670293789E+00 -1.628853150592E+00 -8.130522416565E+00
    57    59     6   -4.953670293789E+00  2.106506499491E+00 -5.255801702560E-01
    57    60     6   -1.004663633718E+00 -2.106506499491E+00  8.130522416565E+00
    57    61     6   -1.004663633718E+00 -1.628853150592E+00 -5.255801702560E-01
    57    62     6   -4.953670293789E+00  1.628853150592E+00  8.130522416565E+00
    57    63     6    4.953670293789E+00 -2.106506499491E+00  5.255801702560E-01
    57    64     6    1.004663633718E+00  2.106506499491E+00 -8.130522416565E+00
    65    65     6   -8.693069084420E-01  1.098191296711E+00 -5.205713078402E+00
    65    66     6   -5.089027019065E+00 -1.098191296711E+00  3.450389508419E+00
    65    67     6    5.089027019065E+00  2.637168353372E+00  5.205713078402E+00
    65    68     6    8.693069084420E-01 -2.637168353372E+00 -3.450389508419E+00
    65    69     6    8.693069084420E-01 -1.098191296711E+00  5.205713078402E+00
    65    70     6    5.089027019065E+00  1.098191296711E+00 -3.450389508419E+00
    65    71     6   -5.089027019065E+00 -2.637168353372E+00 -5.205713078402E+00
    65    72     6   -8.693069084420E-01  2.637168353372E+00  3.450389508419E+00
    73    73     6   -1.622892469810E-01  1.759979704546E+00 -4.194052582020E-01
    73    74     6   -5.796044680526E+00 -1.759979704546E+00  8.236697328619E+00
    73    75     6    5.796044680526E+00  1.975379945536E+00  4.194052582020E-01
    73    76     6    1.622892469810E-01 -1.975379945536E+00 -8.236697328619E+00
    73    77     6    1.622892469810E-01 -1.759979704546E+00  4.194052582020E-01
    73    78     6    5.796044680526E+00  1.759979704546E+00 -8.236697328619E+00
    73    79     6   -5.796044680526E+00 -1.975379945536E+00 -4.194052582020E-01
    73    80     6   -1.622892469810E-01  1.975379945536E+00  8.236697328619E+00
    81    81     6   -1.685416323970E-01  1.042414765379E+00 -4.015311395074E+00
    81    82     6   -5.789792295110E+00 -1.042414765379E+00  4.640791191747E+00
    81    83     6    5.789792295110E+00  2.692944884703E+00  4.015311395074E+00
    81    84     6    1.685416323970E-01 -2.692944884703E+00 -4.640791191747E+00
    81    85     6    1.685416323970E-01 -1.042414765379E+00  4.015311395074E+00
    81    86     6    5.789792295110E+00  1.042414765379E+00 -4.640791191747E+00
    81    87     6   -5.789792295110E+00 -2.692944884703E+00 -4.015311395074E+00
    81    88     6   -1.685416323970E-01  2.692944884703E+00  4.640791191747E+00
    89    89     1   -2.213045023178E+00  1.713073704179E+00 -7.195878674973E+00
    89    90     1   -3.745288904329E+00 -1.713073704179E+00  1.460223911848E+00
    89    91     1    3.745288904329E+00  2.022285945903E+00  7.195878674973E+00
    89    92     1    2.213045023178E+00 -2.022285945903E+00 -1.460223911848E+00
    89    93     1    2.213045023178E+00 -1.713073704179E+00  7.195878674973E+00
    89    94     1    3.745288904329E+00  1.713073704179E+00 -1.460223911848E+00
    89    95     1   -3.745288904329E+00 -2.022285945903E+00 -7.195878674973E+00
    89    96     1   -2.213045023178E+00  2.022285945903E+00  1.460223911848E+00
    97    97     1    1.132375552083E+00  1.426636912860E+00 -1.914865741735E+00
    97    98     1    4.825958375424E+00 -1.426636912860E+00  6.741236845086E+00
    97    99     1   -4.825958375424E+00  2.308722737223E+00  1.914865741735E+00
    97   100     1   -1.132375552083E+00 -2.308722737223E+00 -6.741236845086E+00
    97   101     1   -1.132375552083E+00 -1.426636912860E+00  1.914865741735E+00
    97   102     1   -4.825958375424E+00  1.426636912860E+00 -6.741236845086E+00
    97   103     1    4.825958375424E+00 -2.308722737223E+00 -1.914865741735E+00
    97   104     1    1.132375552083E+00  2.308722737223E+00  6.741236845086E+00
   105   105     1   -2.369265007605E+00  2.671571680011E+00 -2.029778398755E+00
   105   106     1   -3.589068919902E+00 -2.671571680011E+00  6.626324188066E+00
   105   107     1    3.589068919902E+00  1.063787970072E+00  2.029778398755E+00
   105   108     1    2.369265007605E+00 -1.063787970072E+00 -6.626324188066E+00
   105   109     1    2.369265007605E+00 -2.671571680011E+00  2.029778398755E+00
   105   110     1    3.589068919902E+00  2.671571680011E+00 -6.626324188066E+00
   105   111     1   -3.589068919902E+00 -1.063787970072E+00 -2.029778398755E+00
   105   112     1   -2.369265007605E+00  1.063787970072E+00  6.626324188066E+00
   113   113     1   -3.595467867365E+00  2.777478223862E+00 -4.128133209591E+00
   113   114     1   -2.362866060142E+00 -2.777478223862E+00  4.527969377230E+00
   113   115     1    2.362866060142E+00  9.578814262210E-01  4.128133209591E+00
   113   116     1    3.595467867365E+00 -9.578814262210E-01 -4.527969377230E+00
   113   117     1    3.595467867365E+00 -2.777478223862E+00  4.128133209591E+00
   113   118     1    2.362866060142E+00  2.777478223862E+00 -4.527969377230E+00
   113   119     1   -2.362866060142E+00 -9.578814262210E-01 -4.128133209591E+00
   113   120     1   -3.595467867365E+00  9.578814262210E-01  4.527969377230E+00
   121   121     1    1.475704701079E+00  2.604528134848E+00  6.609117407150E-01
   121   122     1    4.482629226428E+00 -2.604528134848E+00 -7.995190846106E+00
   121   123     1   -4.482629226428E+00  1.130831515234E+00 -6.609117407150E-01
   121   124     1   -1.475704701079E+00 -1.130831515234E+00  7.995190846106E+00
   121   125     1   -1.475704701079E+00 -2.604528134848E+00 -6.609117407150E-01
   121   126     1   -4.482629226428E+00  2.604528134848E+00  7.995190846106E+00
   121   127     1    4.482629226428E+00 -1.130831515234E+00  6.609117407150E-01
   121   128     1    1.475704701079E+00  1.130831515234E+00 -7.995190846106E+00
   129   129     1    1.766362031105E+00  9.415303304970E-01  1.627050950100E-01
   129   130     1    4.191971896402E+00 -9.415303304970E-01 -8.493397491811E+00
   129   131     1   -4.191971896402E+00  2.793829319586E+00 -1.627050950100E-01
   129   132     1   -1.766362031105E+00 -2.793829319586E+00  8.493397491811E+00
   129   133     1   -1.766362031105E+00 -9.415303304970E-01 -1.627050950100E-01
   129   134     1   -4.191971896402E+00  9.415303304970E-01  8.493397491811E+00
   129   135     1    4.191971896402E+00 -2.793829319586E+00  1.627050950100E-01
   129   136     1    1.766362031105E+00  2.793829319586E+00 -8.493397491811E+00
   137   137     1    6.630597715560E-01  1.284607077144E+00  1.498844626245E+00
   137   138     1    5.295274155951E+00 -1.284607077144E+00 -7.157257960576E+00
   137   139     1   -5.295274155951E+00  2.450752572938E+00 -1.498844626245E+00
   137   140     1   -6.630597715560E-01 -2.450752572938E+00  7.157257960576E+00
   137   141     1   -6.630597715560E-01 -1.284607077144E+00 -1.498844626245E+00
   137   142     1   -5.295274155951E+00  1.284607077144E+00  7.157257960576E+00
   137   143     1    5.295274155951E+00 -2.450752572938E+00  1.498844626245E+00
   137   144     1    6.630597715560E-01  2.450752572938E+00 -7.157257960576E+00
   145   145     1   -4.530104977240E-01  6.212325663410E-01 -6.083069651665E+00
   145   146     1   -5.505323429783E+00 -6.212325663410E-01  2.573032935156E+00
   145   147     1    5.505323429783E+00  3.114127083742E+00  6.083069651665E+00
   145   148     1    4.530104977240E-01 -3.114127083742E+00 -2.573032935156E+00
   145   149     1    4.530104977240E-01 -6.212325663410E-01  6.083069651665E+00
   145   150     1    5.505323429783E+00  6.212325663410E-01 -2.573032935156E+00
   145   151     1   -5.505323429783E+00 -3.114127083742E+00 -6.083069651665E+00
   145   152     1   -4.530104977240E-01  3.114127083742E+00  2.573032935156E+00
   153   153     1    7.908127085990E-01  5.377518081780E-01 -4.001416947089E+00
   153   154     1    5.167521218908E+00 -5.377518081780E-01  4.654685639732E+00
   153   155     1   -5.167521218908E+00  3.197607841905E+00  4.001416947089E+00
   153   156     1   -7.908127085990E-01 -3.197607841905E+00 -4.654685639732E+00
   153   157     1   -7.908127085990E-01 -5.377518081780E-01  4.001416947089E+00
   153   158     1   -5.167521218908E+00  5.377518081780E-01 -4.654685639732E+00
   153   159     1    5.167521218908E+00 -3.197607841905E+00 -4.001416947089E+00
   153   160     1    7.908127085990E-01  3.197607841905E+00  4.654685639732E+00

 SPACE  GROUP  N.                     :   61
 NUMBER OF SYMMETRY OPERATORS         :    8
 *******************************************************************************
 LATTICE PARAMETERS (ANGSTROMS AND DEGREES) - BOHR = 0.5291772083 ANGSTROM
 PRIMITIVE CELL - CENTRING CODE 1/0 VOLUME=  1541.237772 - DENSITY  1.302 g/cm^3
         A              B              C           ALPHA      BETA       GAMMA 
    11.91666786     7.47071930    17.31220517    90.000000  90.000000  90.000000
 *******************************************************************************
 ATOMS IN THE ASYMMETRIC UNIT   20 - ATOMS IN THE UNIT CELL:  160
     ATOM                 X/A                 Y/B                 Z/C    
 *******************************************************************************
      1 T   8 O    -2.349095305586E-01  2.468789708538E-01 -3.708585769957E-01
      2 F   8 O    -2.650904694420E-01 -2.468789708538E-01  1.291414230055E-01
      3 F   8 O     2.650904694420E-01  2.531210291465E-01  3.708585769957E-01
      4 F   8 O     2.349095305586E-01 -2.531210291465E-01 -1.291414230055E-01
      5 F   8 O     2.349095305586E-01 -2.468789708538E-01  3.708585769957E-01
      6 F   8 O     2.650904694420E-01  2.468789708538E-01 -1.291414230055E-01
      7 F   8 O    -2.650904694420E-01 -2.531210291465E-01 -3.708585769957E-01
      8 F   8 O    -2.349095305586E-01  2.531210291465E-01  1.291414230055E-01
      9 T   8 O    -1.087222844545E-01  2.731415243025E-01 -1.771339770497E-03
     10 F   8 O    -3.912777155461E-01 -2.731415243025E-01  4.982286602283E-01
     11 F   8 O     3.912777155461E-01  2.268584756977E-01  1.771339770497E-03
     12 F   8 O     1.087222844545E-01 -2.268584756977E-01 -4.982286602283E-01
     13 F   8 O     1.087222844545E-01 -2.731415243025E-01  1.771339770497E-03
     14 F   8 O     3.912777155461E-01  2.731415243025E-01 -4.982286602283E-01
     15 F   8 O    -3.912777155461E-01 -2.268584756977E-01 -1.771339770497E-03
     16 F   8 O    -1.087222844545E-01  2.268584756977E-01  4.982286602283E-01
     17 T   7 N     1.248422649429E-02  2.104302410831E-01 -9.895249251952E-02
     18 F   7 N     4.875157735063E-01 -2.104302410831E-01  4.010475074816E-01
     19 F   7 N    -4.875157735063E-01  2.895697589173E-01  9.895249251952E-02
     20 F   7 N    -1.248422649429E-02 -2.895697589173E-01 -4.010475074816E-01
     21 F   7 N    -1.248422649429E-02 -2.104302410831E-01  9.895249251952E-02
     22 F   7 N    -4.875157735063E-01  2.104302410831E-01 -4.010475074816E-01
     23 F   7 N     4.875157735063E-01 -2.895697589173E-01 -9.895249251952E-02
     24 F   7 N     1.248422649429E-02  2.895697589173E-01  4.010475074816E-01
     25 T   6 C    -1.764690989971E-01  2.329443878574E-01 -3.043868692786E-01
     26 F   6 C    -3.235309010034E-01 -2.329443878574E-01  1.956131307226E-01
     27 F   6 C     3.235309010034E-01  2.670556121430E-01  3.043868692786E-01
     28 F   6 C     1.764690989971E-01 -2.670556121430E-01 -1.956131307226E-01
     29 F   6 C     1.764690989971E-01 -2.329443878574E-01  3.043868692786E-01
     30 F   6 C     3.235309010034E-01  2.329443878574E-01 -1.956131307226E-01
     31 F   6 C    -3.235309010034E-01 -2.670556121430E-01 -3.043868692786E-01
     32 F   6 C    -1.764690989971E-01  2.670556121430E-01  1.956131307226E-01
     33 T   6 C    -5.693968340926E-02  2.163267094719E-01 -1.647862155649E-01
     34 F   6 C    -4.430603165913E-01 -2.163267094719E-01  3.352137844363E-01
     35 F   6 C     4.430603165913E-01  2.836732905283E-01  1.647862155649E-01
     36 F   6 C     5.693968340926E-02 -2.836732905283E-01 -3.352137844363E-01
     37 F   6 C     5.693968340926E-02 -2.163267094719E-01  1.647862155649E-01
     38 F   6 C     4.430603165913E-01  2.163267094719E-01 -3.352137844363E-01
     39 F   6 C    -4.430603165913E-01 -2.836732905283E-01 -1.647862155649E-01
     40 F   6 C    -5.693968340926E-02  2.836732905283E-01  3.352137844363E-01
     41 T   6 C    -1.622026187259E-01  2.972223718857E-01 -1.678584788254E-01
     42 F   6 C    -3.377973812747E-01 -2.972223718857E-01  3.321415211758E-01
     43 F   6 C     3.377973812747E-01  2.027776281145E-01  1.678584788254E-01
     44 F   6 C     1.622026187259E-01 -2.027776281145E-01 -3.321415211758E-01
     45 F   6 C     1.622026187259E-01 -2.972223718857E-01  1.678584788254E-01
     46 F   6 C     3.377973812747E-01  2.972223718857E-01 -3.321415211758E-01
     47 F   6 C    -3.377973812747E-01 -2.027776281145E-01 -1.678584788254E-01
     48 F   6 C    -1.622026187259E-01  2.027776281145E-01  3.321415211758E-01
     49 T   6 C    -2.210121011339E-01  3.052237809310E-01 -2.369858784165E-01
     50 F   6 C    -2.789878988667E-01 -3.052237809310E-01  2.630141215847E-01
     51 F   6 C     2.789878988667E-01  1.947762190693E-01  2.369858784165E-01
     52 F   6 C     2.210121011339E-01 -1.947762190693E-01 -2.630141215847E-01
     53 F   6 C     2.210121011339E-01 -3.052237809310E-01  2.369858784165E-01
     54 F   6 C     2.789878988667E-01  3.052237809310E-01 -2.630141215847E-01
     55 F   6 C    -2.789878988667E-01 -1.947762190693E-01 -2.369858784165E-01
     56 F   6 C    -2.210121011339E-01  1.947762190693E-01  2.630141215847E-01
     57 T   6 C     8.430742938736E-02  2.180316359306E-01  3.035893838975E-02
     58 F   6 C     4.156925706132E-01 -2.180316359306E-01 -4.696410616115E-01
     59 F   6 C    -4.156925706132E-01  2.819683640698E-01 -3.035893838975E-02
     60 F   6 C    -8.430742938736E-02 -2.819683640698E-01  4.696410616115E-01
     61 F   6 C    -8.430742938736E-02 -2.180316359306E-01 -3.035893838975E-02
     62 F   6 C    -4.156925706132E-01  2.180316359306E-01  4.696410616115E-01
     63 F   6 C     4.156925706132E-01 -2.819683640698E-01  3.035893838975E-02
     64 F   6 C     8.430742938736E-02  2.819683640698E-01 -4.696410616115E-01
     65 T   6 C    -7.294882420317E-02  1.469994056245E-01 -3.006961288987E-01
     66 F   6 C    -4.270511757974E-01 -1.469994056245E-01  1.993038711025E-01
     67 F   6 C     4.270511757974E-01  3.530005943759E-01  3.006961288987E-01
     68 F   6 C     7.294882420317E-02 -3.530005943759E-01 -1.993038711025E-01
     69 F   6 C     7.294882420317E-02 -1.469994056245E-01  3.006961288987E-01
     70 F   6 C     4.270511757974E-01  1.469994056245E-01 -1.993038711025E-01
     71 F   6 C    -4.270511757974E-01 -3.530005943759E-01 -3.006961288987E-01
     72 F   6 C    -7.294882420317E-02  3.530005943759E-01  1.993038711025E-01
     73 T   6 C    -1.361867671028E-02  2.355837013590E-01 -2.422598704188E-02
     74 F   6 C    -4.863813232903E-01 -2.355837013590E-01  4.757740129593E-01
     75 F   6 C     4.863813232903E-01  2.644162986412E-01  2.422598704188E-02
     76 F   6 C     1.361867671028E-02 -2.644162986412E-01 -4.757740129593E-01
     77 F   6 C     1.361867671028E-02 -2.355837013590E-01  2.422598704188E-02
     78 F   6 C     4.863813232903E-01  2.355837013590E-01 -4.757740129593E-01
     79 F   6 C    -4.863813232903E-01 -2.644162986412E-01 -2.422598704188E-02
     80 F   6 C    -1.361867671028E-02  2.644162986412E-01  4.757740129593E-01
     81 T   6 C    -1.414335235720E-02  1.395333867459E-01 -2.319352939045E-01
     82 F   6 C    -4.858566476434E-01 -1.395333867459E-01  2.680647060967E-01
     83 F   6 C     4.858566476434E-01  3.604666132544E-01  2.319352939045E-01
     84 F   6 C     1.414335235720E-02 -3.604666132544E-01 -2.680647060967E-01
     85 F   6 C     1.414335235720E-02 -1.395333867459E-01  2.319352939045E-01
     86 F   6 C     4.858566476434E-01  1.395333867459E-01 -2.680647060967E-01
     87 F   6 C    -4.858566476434E-01 -3.604666132544E-01 -2.319352939045E-01
     88 F   6 C    -1.414335235720E-02  3.604666132544E-01  2.680647060967E-01
     89 T   1 H    -1.857100533560E-01  2.293050555577E-01 -4.156535001067E-01
     90 F   1 H    -3.142899466446E-01 -2.293050555577E-01  8.434649989446E-02
     91 F   1 H     3.142899466446E-01  2.706949444426E-01  4.156535001067E-01
     92 F   1 H     1.857100533560E-01 -2.706949444426E-01 -8.434649989446E-02
     93 F   1 H     1.857100533560E-01 -2.293050555577E-01  4.156535001067E-01
     94 F   1 H     3.142899466446E-01  2.293050555577E-01 -8.434649989446E-02
     95 F   1 H    -3.142899466446E-01 -2.706949444426E-01 -4.156535001067E-01
     96 F   1 H    -1.857100533560E-01  2.706949444426E-01  8.434649989446E-02
     97 T   1 H     9.502451237725E-02  1.909637955249E-01 -1.106078470382E-01
     98 F   1 H     4.049754876233E-01 -1.909637955249E-01  3.893921529630E-01
     99 F   1 H    -4.049754876233E-01  3.090362044755E-01  1.106078470382E-01
    100 F   1 H    -9.502451237725E-02 -3.090362044755E-01 -3.893921529630E-01
    101 F   1 H    -9.502451237725E-02 -1.909637955249E-01  1.106078470382E-01
    102 F   1 H    -4.049754876233E-01  1.909637955249E-01 -3.893921529630E-01
    103 F   1 H     4.049754876233E-01 -3.090362044755E-01 -1.106078470382E-01
    104 F   1 H     9.502451237725E-02  3.090362044755E-01  3.893921529630E-01
    105 T   1 H    -1.988194213713E-01  3.576056832913E-01 -1.172455142716E-01
    106 F   1 H    -3.011805786293E-01 -3.576056832913E-01  3.827544857296E-01
    107 F   1 H     3.011805786293E-01  1.423943167091E-01  1.172455142716E-01
    108 F   1 H     1.988194213713E-01 -1.423943167091E-01 -3.827544857296E-01
    109 F   1 H     1.988194213713E-01 -3.576056832913E-01  1.172455142716E-01
    110 F   1 H     3.011805786293E-01  3.576056832913E-01 -3.827544857296E-01
    111 F   1 H    -3.011805786293E-01 -1.423943167091E-01 -1.172455142716E-01
    112 F   1 H    -1.988194213713E-01  1.423943167091E-01  3.827544857296E-01
    113 T   1 H    -3.017175531880E-01  3.717819010818E-01 -2.384521883952E-01
    114 F   1 H    -1.982824468126E-01 -3.717819010818E-01  2.615478116060E-01
    115 F   1 H     1.982824468126E-01  1.282180989186E-01  2.384521883952E-01
    116 F   1 H     3.017175531880E-01 -1.282180989186E-01 -2.615478116060E-01
    117 F   1 H     3.017175531880E-01 -3.717819010818E-01  2.384521883952E-01
    118 F   1 H     1.982824468126E-01  3.717819010818E-01 -2.615478116060E-01
    119 F   1 H    -1.982824468126E-01 -1.282180989186E-01 -2.384521883952E-01
    120 F   1 H    -3.017175531880E-01  1.282180989186E-01  2.615478116060E-01
    121 T   1 H     1.238353471822E-01  3.486315079181E-01  3.817605753211E-02
    122 F   1 H     3.761646528184E-01 -3.486315079181E-01 -4.618239424691E-01
    123 F   1 H    -3.761646528184E-01  1.513684920821E-01 -3.817605753211E-02
    124 F   1 H    -1.238353471822E-01 -1.513684920821E-01  4.618239424691E-01
    125 F   1 H    -1.238353471822E-01 -3.486315079181E-01 -3.817605753211E-02
    126 F   1 H    -3.761646528184E-01  3.486315079181E-01  4.618239424691E-01
    127 F   1 H     3.761646528184E-01 -1.513684920821E-01  3.817605753211E-02
    128 F   1 H     1.238353471822E-01  1.513684920821E-01 -4.618239424691E-01
    129 T   1 H     1.482261696472E-01  1.260294079684E-01  9.398288281502E-03
    130 F   1 H     3.517738303534E-01 -1.260294079684E-01 -4.906017117197E-01
    131 F   1 H    -3.517738303534E-01  3.739705920320E-01 -9.398288281502E-03
    132 F   1 H    -1.482261696472E-01 -3.739705920320E-01  4.906017117197E-01
    133 F   1 H    -1.482261696472E-01 -1.260294079684E-01 -9.398288281502E-03
    134 F   1 H    -3.517738303534E-01  1.260294079684E-01  4.906017117197E-01
    135 F   1 H     3.517738303534E-01 -3.739705920320E-01  9.398288281502E-03
    136 F   1 H     1.482261696472E-01  3.739705920320E-01 -4.906017117197E-01
    137 T   1 H     5.564137388270E-02  1.719522612925E-01  8.657733727247E-02
    138 F   1 H     4.443586261179E-01 -1.719522612925E-01 -4.134226627287E-01
    139 F   1 H    -4.443586261179E-01  3.280477387078E-01 -8.657733727247E-02
    140 F   1 H    -5.564137388270E-02 -3.280477387078E-01  4.134226627287E-01
    141 F   1 H    -5.564137388270E-02 -1.719522612925E-01 -8.657733727247E-02
    142 F   1 H    -4.443586261179E-01  1.719522612925E-01  4.134226627287E-01
    143 F   1 H     4.443586261179E-01 -3.280477387078E-01  8.657733727247E-02
    144 F   1 H     5.564137388270E-02  3.280477387078E-01 -4.134226627287E-01
    145 T   1 H    -3.801486315102E-02  8.315565628703E-02 -3.513746279383E-01
    146 F   1 H    -4.619851368496E-01 -8.315565628703E-02  1.486253720629E-01
    147 F   1 H     4.619851368496E-01  4.168443437134E-01  3.513746279383E-01
    148 F   1 H     3.801486315102E-02 -4.168443437134E-01 -1.486253720629E-01
    149 F   1 H     3.801486315102E-02 -8.315565628703E-02  3.513746279383E-01
    150 F   1 H     4.619851368496E-01  8.315565628703E-02 -1.486253720629E-01
    151 F   1 H    -4.619851368496E-01 -4.168443437134E-01 -3.513746279383E-01
    152 F   1 H    -3.801486315102E-02  4.168443437134E-01  1.486253720629E-01
    153 T   1 H     6.636189899907E-02  7.198126265653E-02 -2.311327128442E-01
    154 F   1 H     4.336381010015E-01 -7.198126265653E-02  2.688672871570E-01
    155 F   1 H    -4.336381010015E-01  4.280187373439E-01  2.311327128442E-01
    156 F   1 H    -6.636189899907E-02 -4.280187373439E-01 -2.688672871570E-01
    157 F   1 H    -6.636189899907E-02 -7.198126265653E-02  2.311327128442E-01
    158 F   1 H    -4.336381010015E-01  7.198126265653E-02 -2.688672871570E-01
    159 F   1 H     4.336381010015E-01 -4.280187373439E-01 -2.311327128442E-01
    160 F   1 H     6.636189899907E-02  4.280187373439E-01  2.688672871570E-01

 T = ATOM BELONGING TO THE ASYMMETRIC UNIT
 *******************************************************************************
 * GEOMETRY EDITING - INPUT COORDINATES ARE GIVEN IN ANGSTROM         
 *******************************************************************************

 GEOMETRY NOW FULLY CONSISTENT WITH THE GROUP

 FRQFRQFRQFRQFRQFRQFRQFRQFRQFRQFRQFRQFRQFRQFRQFRQFRQFRQFRQFRQFRQFRQFRQFRQFRQFRQ

                       FREQUENCY CALCULATION

 INFORMATION **** INPFREQ ****  PRINTING OF EIGENVECTORS
 INFORMATION **** INPFREQ **** NEW DEFAULT - IMPOSING ECKART CONDITIONS TO THE HESSIAN

 GCALCO - MAX INDICES DIRECT LATTICE VECTOR    14    23     9
 NO.OF VECTORS CREATED 6999 STARS 1060 RMAX   259.28892 BOHR

 GEOMETRY FOR WAVE FUNCTION - DIMENSIONALITY OF THE SYSTEM    3
 (NON PERIODIC DIRECTION: LATTICE PARAMETER FORMALLY SET TO 500)
 *******************************************************************************
 LATTICE PARAMETERS (ANGSTROMS AND DEGREES) - BOHR = 0.5291772083 ANGSTROM
 PRIMITIVE CELL - CENTRING CODE 1/0 VOLUME=  1541.237772 - DENSITY  1.302 g/cm^3
         A              B              C           ALPHA      BETA       GAMMA 
    11.91666786     7.47071930    17.31220517    90.000000  90.000000  90.000000
 *******************************************************************************
 ATOMS IN THE ASYMMETRIC UNIT   20 - ATOMS IN THE UNIT CELL:  160
     ATOM                 X/A                 Y/B                 Z/C    
 *******************************************************************************
      1 T   8 O    -2.349095305586E-01  2.468789708538E-01 -3.708585769957E-01
      2 F   8 O    -2.650904694405E-01 -2.468789708538E-01  1.291414230054E-01
      3 F   8 O     2.650904694422E-01  2.531210291462E-01  3.708585769957E-01
      4 F   8 O     2.349095305586E-01 -2.531210291462E-01 -1.291414230031E-01
      5 F   8 O     2.349095305586E-01 -2.468789708538E-01  3.708585769957E-01
      6 F   8 O     2.650904694422E-01  2.468789708538E-01 -1.291414230031E-01
      7 F   8 O    -2.650904694405E-01 -2.531210291462E-01 -3.708585769957E-01
      8 F   8 O    -2.349095305586E-01  2.531210291462E-01  1.291414230054E-01
      9 T   8 O    -1.087222844545E-01  2.731415243025E-01 -1.771339770497E-03
     10 F   8 O    -3.912777155447E-01 -2.731415243025E-01  4.982286602307E-01
     11 F   8 O     3.912777155463E-01  2.268584756975E-01  1.771339770497E-03
     12 F   8 O     1.087222844545E-01 -2.268584756975E-01 -4.982286602283E-01
     13 F   8 O     1.087222844545E-01 -2.731415243025E-01  1.771339770497E-03
     14 F   8 O     3.912777155463E-01  2.731415243025E-01 -4.982286602283E-01
     15 F   8 O    -3.912777155447E-01 -2.268584756975E-01 -1.771339770497E-03
     16 F   8 O    -1.087222844545E-01  2.268584756975E-01  4.982286602307E-01
     17 T   7 N     1.248422649429E-02  2.104302410831E-01 -9.895249251952E-02
     18 F   7 N     4.875157735066E-01 -2.104302410831E-01  4.010475074816E-01
     19 F   7 N    -4.875157735049E-01  2.895697589169E-01  9.895249251952E-02
     20 F   7 N    -1.248422649429E-02 -2.895697589169E-01 -4.010475074793E-01
     21 F   7 N    -1.248422649429E-02 -2.104302410831E-01  9.895249251952E-02
     22 F   7 N    -4.875157735049E-01  2.104302410831E-01 -4.010475074793E-01
     23 F   7 N     4.875157735066E-01 -2.895697589169E-01 -9.895249251952E-02
     24 F   7 N     1.248422649429E-02  2.895697589169E-01  4.010475074816E-01
     25 T   6 C    -1.764690989971E-01  2.329443878574E-01 -3.043868692786E-01
     26 F   6 C    -3.235309010020E-01 -2.329443878574E-01  1.956131307225E-01
     27 F   6 C     3.235309010037E-01  2.670556121426E-01  3.043868692786E-01
     28 F   6 C     1.764690989971E-01 -2.670556121426E-01 -1.956131307202E-01
     29 F   6 C     1.764690989971E-01 -2.329443878574E-01  3.043868692786E-01
     30 F   6 C     3.235309010037E-01  2.329443878574E-01 -1.956131307202E-01
     31 F   6 C    -3.235309010020E-01 -2.670556121426E-01 -3.043868692786E-01
     32 F   6 C    -1.764690989971E-01  2.670556121426E-01  1.956131307225E-01
     33 T   6 C    -5.693968340926E-02  2.163267094719E-01 -1.647862155649E-01
     34 F   6 C    -4.430603165899E-01 -2.163267094719E-01  3.352137844363E-01
     35 F   6 C     4.430603165916E-01  2.836732905281E-01  1.647862155649E-01
     36 F   6 C     5.693968340926E-02 -2.836732905281E-01 -3.352137844340E-01
     37 F   6 C     5.693968340926E-02 -2.163267094719E-01  1.647862155649E-01
     38 F   6 C     4.430603165916E-01  2.163267094719E-01 -3.352137844340E-01
     39 F   6 C    -4.430603165899E-01 -2.836732905281E-01 -1.647862155649E-01
     40 F   6 C    -5.693968340926E-02  2.836732905281E-01  3.352137844363E-01
     41 T   6 C    -1.622026187259E-01  2.972223718857E-01 -1.678584788254E-01
     42 F   6 C    -3.377973812732E-01 -2.972223718857E-01  3.321415211757E-01
     43 F   6 C     3.377973812749E-01  2.027776281143E-01  1.678584788254E-01
     44 F   6 C     1.622026187259E-01 -2.027776281143E-01 -3.321415211734E-01
     45 F   6 C     1.622026187259E-01 -2.972223718857E-01  1.678584788254E-01
     46 F   6 C     3.377973812749E-01  2.972223718857E-01 -3.321415211734E-01
     47 F   6 C    -3.377973812732E-01 -2.027776281143E-01 -1.678584788254E-01
     48 F   6 C    -1.622026187259E-01  2.027776281143E-01  3.321415211757E-01
     49 T   6 C    -2.210121011339E-01  3.052237809310E-01 -2.369858784165E-01
     50 F   6 C    -2.789878988653E-01 -3.052237809310E-01  2.630141215846E-01
     51 F   6 C     2.789878988670E-01  1.947762190690E-01  2.369858784165E-01
     52 F   6 C     2.210121011339E-01 -1.947762190690E-01 -2.630141215823E-01
     53 F   6 C     2.210121011339E-01 -3.052237809310E-01  2.369858784165E-01
     54 F   6 C     2.789878988670E-01  3.052237809310E-01 -2.630141215823E-01
     55 F   6 C    -2.789878988653E-01 -1.947762190690E-01 -2.369858784165E-01
     56 F   6 C    -2.210121011339E-01  1.947762190690E-01  2.630141215846E-01
     57 T   6 C     8.430742938736E-02  2.180316359306E-01  3.035893838975E-02
     58 F   6 C     4.156925706135E-01 -2.180316359306E-01 -4.696410616091E-01
     59 F   6 C    -4.156925706118E-01  2.819683640694E-01 -3.035893838975E-02
     60 F   6 C    -8.430742938736E-02 -2.819683640694E-01  4.696410616114E-01
     61 F   6 C    -8.430742938736E-02 -2.180316359306E-01 -3.035893838975E-02
     62 F   6 C    -4.156925706118E-01  2.180316359306E-01  4.696410616114E-01
     63 F   6 C     4.156925706135E-01 -2.819683640694E-01  3.035893838975E-02
     64 F   6 C     8.430742938736E-02  2.819683640694E-01 -4.696410616091E-01
     65 T   6 C    -7.294882420317E-02  1.469994056245E-01 -3.006961288987E-01
     66 F   6 C    -4.270511757960E-01 -1.469994056245E-01  1.993038711024E-01
     67 F   6 C     4.270511757977E-01  3.530005943755E-01  3.006961288987E-01
     68 F   6 C     7.294882420317E-02 -3.530005943755E-01 -1.993038711001E-01
     69 F   6 C     7.294882420317E-02 -1.469994056245E-01  3.006961288987E-01
     70 F   6 C     4.270511757977E-01  1.469994056245E-01 -1.993038711001E-01
     71 F   6 C    -4.270511757960E-01 -3.530005943755E-01 -3.006961288987E-01
     72 F   6 C    -7.294882420317E-02  3.530005943755E-01  1.993038711024E-01
     73 T   6 C    -1.361867671028E-02  2.355837013590E-01 -2.422598704188E-02
     74 F   6 C    -4.863813232889E-01 -2.355837013590E-01  4.757740129593E-01
     75 F   6 C     4.863813232906E-01  2.644162986410E-01  2.422598704188E-02
     76 F   6 C     1.361867671028E-02 -2.644162986410E-01 -4.757740129570E-01
     77 F   6 C     1.361867671028E-02 -2.355837013590E-01  2.422598704188E-02
     78 F   6 C     4.863813232906E-01  2.355837013590E-01 -4.757740129570E-01
     79 F   6 C    -4.863813232889E-01 -2.644162986410E-01 -2.422598704188E-02
     80 F   6 C    -1.361867671028E-02  2.644162986410E-01  4.757740129593E-01
     81 T   6 C    -1.414335235720E-02  1.395333867459E-01 -2.319352939045E-01
     82 F   6 C    -4.858566476420E-01 -1.395333867459E-01  2.680647060967E-01
     83 F   6 C     4.858566476436E-01  3.604666132541E-01  2.319352939045E-01
     84 F   6 C     1.414335235720E-02 -3.604666132541E-01 -2.680647060943E-01
     85 F   6 C     1.414335235720E-02 -1.395333867459E-01  2.319352939045E-01
     86 F   6 C     4.858566476436E-01  1.395333867459E-01 -2.680647060943E-01
     87 F   6 C    -4.858566476420E-01 -3.604666132541E-01 -2.319352939045E-01
     88 F   6 C    -1.414335235720E-02  3.604666132541E-01  2.680647060967E-01
     89 T   1 H    -1.857100533560E-01  2.293050555577E-01 -4.156535001067E-01
     90 F   1 H    -3.142899466431E-01 -2.293050555577E-01  8.434649989441E-02
     91 F   1 H     3.142899466448E-01  2.706949444423E-01  4.156535001067E-01
     92 F   1 H     1.857100533560E-01 -2.706949444423E-01 -8.434649989210E-02
     93 F   1 H     1.857100533560E-01 -2.293050555577E-01  4.156535001067E-01
     94 F   1 H     3.142899466448E-01  2.293050555577E-01 -8.434649989210E-02
     95 F   1 H    -3.142899466431E-01 -2.706949444423E-01 -4.156535001067E-01
     96 F   1 H    -1.857100533560E-01  2.706949444423E-01  8.434649989441E-02
     97 T   1 H     9.502451237725E-02  1.909637955249E-01 -1.106078470382E-01
     98 F   1 H     4.049754876236E-01 -1.909637955249E-01  3.893921529630E-01
     99 F   1 H    -4.049754876219E-01  3.090362044751E-01  1.106078470382E-01
    100 F   1 H    -9.502451237725E-02 -3.090362044751E-01 -3.893921529607E-01
    101 F   1 H    -9.502451237725E-02 -1.909637955249E-01  1.106078470382E-01
    102 F   1 H    -4.049754876219E-01  1.909637955249E-01 -3.893921529607E-01
    103 F   1 H     4.049754876236E-01 -3.090362044751E-01 -1.106078470382E-01
    104 F   1 H     9.502451237725E-02  3.090362044751E-01  3.893921529630E-01
    105 T   1 H    -1.988194213713E-01  3.576056832913E-01 -1.172455142716E-01
    106 F   1 H    -3.011805786279E-01 -3.576056832913E-01  3.827544857295E-01
    107 F   1 H     3.011805786295E-01  1.423943167087E-01  1.172455142716E-01
    108 F   1 H     1.988194213713E-01 -1.423943167087E-01 -3.827544857272E-01
    109 F   1 H     1.988194213713E-01 -3.576056832913E-01  1.172455142716E-01
    110 F   1 H     3.011805786295E-01  3.576056832913E-01 -3.827544857272E-01
    111 F   1 H    -3.011805786279E-01 -1.423943167087E-01 -1.172455142716E-01
    112 F   1 H    -1.988194213713E-01  1.423943167087E-01  3.827544857295E-01
    113 T   1 H    -3.017175531880E-01  3.717819010818E-01 -2.384521883952E-01
    114 F   1 H    -1.982824468111E-01 -3.717819010818E-01  2.615478116060E-01
    115 F   1 H     1.982824468128E-01  1.282180989182E-01  2.384521883952E-01
    116 F   1 H     3.017175531880E-01 -1.282180989182E-01 -2.615478116037E-01
    117 F   1 H     3.017175531880E-01 -3.717819010818E-01  2.384521883952E-01
    118 F   1 H     1.982824468128E-01  3.717819010818E-01 -2.615478116037E-01
    119 F   1 H    -1.982824468111E-01 -1.282180989182E-01 -2.384521883952E-01
    120 F   1 H    -3.017175531880E-01  1.282180989182E-01  2.615478116060E-01
    121 T   1 H     1.238353471822E-01  3.486315079181E-01  3.817605753211E-02
    122 F   1 H     3.761646528186E-01 -3.486315079181E-01 -4.618239424667E-01
    123 F   1 H    -3.761646528170E-01  1.513684920819E-01 -3.817605753211E-02
    124 F   1 H    -1.238353471822E-01 -1.513684920819E-01  4.618239424690E-01
    125 F   1 H    -1.238353471822E-01 -3.486315079181E-01 -3.817605753211E-02
    126 F   1 H    -3.761646528170E-01  3.486315079181E-01  4.618239424690E-01
    127 F   1 H     3.761646528186E-01 -1.513684920819E-01  3.817605753211E-02
    128 F   1 H     1.238353471822E-01  1.513684920819E-01 -4.618239424667E-01
    129 T   1 H     1.482261696472E-01  1.260294079684E-01  9.398288281502E-03
    130 F   1 H     3.517738303536E-01 -1.260294079684E-01 -4.906017117173E-01
    131 F   1 H    -3.517738303519E-01  3.739705920316E-01 -9.398288281502E-03
    132 F   1 H    -1.482261696472E-01 -3.739705920316E-01  4.906017117197E-01
    133 F   1 H    -1.482261696472E-01 -1.260294079684E-01 -9.398288281502E-03
    134 F   1 H    -3.517738303519E-01  1.260294079684E-01  4.906017117197E-01
    135 F   1 H     3.517738303536E-01 -3.739705920316E-01  9.398288281502E-03
    136 F   1 H     1.482261696472E-01  3.739705920316E-01 -4.906017117173E-01
    137 T   1 H     5.564137388270E-02  1.719522612925E-01  8.657733727247E-02
    138 F   1 H     4.443586261181E-01 -1.719522612925E-01 -4.134226627264E-01
    139 F   1 H    -4.443586261165E-01  3.280477387075E-01 -8.657733727247E-02
    140 F   1 H    -5.564137388270E-02 -3.280477387075E-01  4.134226627287E-01
    141 F   1 H    -5.564137388270E-02 -1.719522612925E-01 -8.657733727247E-02
    142 F   1 H    -4.443586261165E-01  1.719522612925E-01  4.134226627287E-01
    143 F   1 H     4.443586261181E-01 -3.280477387075E-01  8.657733727247E-02
    144 F   1 H     5.564137388270E-02  3.280477387075E-01 -4.134226627264E-01
    145 T   1 H    -3.801486315102E-02  8.315565628703E-02 -3.513746279383E-01
    146 F   1 H    -4.619851368481E-01 -8.315565628703E-02  1.486253720629E-01
    147 F   1 H     4.619851368498E-01  4.168443437130E-01  3.513746279383E-01
    148 F   1 H     3.801486315102E-02 -4.168443437130E-01 -1.486253720606E-01
    149 F   1 H     3.801486315102E-02 -8.315565628703E-02  3.513746279383E-01
    150 F   1 H     4.619851368498E-01  8.315565628703E-02 -1.486253720606E-01
    151 F   1 H    -4.619851368481E-01 -4.168443437130E-01 -3.513746279383E-01
    152 F   1 H    -3.801486315102E-02  4.168443437130E-01  1.486253720629E-01
    153 T   1 H     6.636189899907E-02  7.198126265653E-02 -2.311327128442E-01
    154 F   1 H     4.336381010018E-01 -7.198126265653E-02  2.688672871570E-01
    155 F   1 H    -4.336381010001E-01  4.280187373435E-01  2.311327128442E-01
    156 F   1 H    -6.636189899907E-02 -4.280187373435E-01 -2.688672871547E-01
    157 F   1 H    -6.636189899907E-02 -7.198126265653E-02  2.311327128442E-01
    158 F   1 H    -4.336381010001E-01  7.198126265653E-02 -2.688672871547E-01
    159 F   1 H     4.336381010018E-01 -4.280187373435E-01 -2.311327128442E-01
    160 F   1 H     6.636189899907E-02  4.280187373435E-01  2.688672871570E-01

 T = ATOM BELONGING TO THE ASYMMETRIC UNIT

 ****    8 SYMMOPS - TRANSLATORS IN FRACTIONAL UNITS
 **** MATRICES AND TRANSLATORS IN THE CRYSTALLOGRAPHIC REFERENCE FRAME
   V INV                    ROTATION MATRICES                   TRANSLATORS
   1   1  1.00  0.00  0.00  0.00  1.00  0.00  0.00  0.00  1.00  0.00  0.00  0.00
   2   2 -1.00  0.00  0.00  0.00 -1.00  0.00  0.00  0.00  1.00  0.50  0.00  0.50
   3   3  1.00  0.00  0.00  0.00 -1.00  0.00  0.00  0.00 -1.00  0.50  0.50  0.00
   4   4 -1.00  0.00  0.00  0.00  1.00  0.00  0.00  0.00 -1.00  0.00  0.50  0.50
   5   5 -1.00  0.00  0.00  0.00 -1.00  0.00  0.00  0.00 -1.00  0.00  0.00  0.00
   6   6  1.00  0.00  0.00  0.00  1.00  0.00  0.00  0.00 -1.00  0.50  0.00  0.50
   7   7 -1.00  0.00  0.00  0.00  1.00  0.00  0.00  0.00  1.00  0.50  0.50  0.00
   8   8  1.00  0.00  0.00  0.00 -1.00  0.00  0.00  0.00  1.00  0.00  0.50  0.50

 DIRECT LATTICE VECTORS CARTESIAN COMPONENTS (ANGSTROM)
          X                    Y                    Z
   0.119166678550E+02   0.000000000000E+00   0.000000000000E+00
   0.000000000000E+00   0.747071930016E+01   0.000000000000E+00
   0.000000000000E+00   0.000000000000E+00   0.173122051736E+02


 CARTESIAN COORDINATES - PRIMITIVE CELL
 *******************************************************************************
 *      ATOM          X(ANGSTROM)         Y(ANGSTROM)         Z(ANGSTROM)
 *******************************************************************************
    1     8 O    -2.799338851641E+00  1.844363492361E+00 -6.420379775339E+00
    2     8 O    -3.158995075849E+00 -1.844363492361E+00  2.235722811481E+00
    3     8 O     3.158995075869E+00  1.890996157719E+00  6.420379775339E+00
    4     8 O     2.799338851641E+00 -1.890996157719E+00 -2.235722811441E+00
    5     8 O     2.799338851641E+00 -1.844363492361E+00  6.420379775339E+00
    6     8 O     3.158995075869E+00  1.844363492361E+00 -2.235722811441E+00
    7     8 O    -3.158995075849E+00 -1.890996157719E+00 -6.420379775339E+00
    8     8 O    -2.799338851641E+00  1.890996157719E+00  2.235722811481E+00
    9     8 O    -1.295607352281E+00  2.040563657282E+00 -3.066579753900E-02
   10     8 O    -4.662726575209E+00 -2.040563657282E+00 -8.686768384319E+00
   11     8 O     4.662726575229E+00  1.694795992798E+00  3.066579753900E-02
   12     8 O     1.295607352281E+00 -1.694795992798E+00  8.686768384359E+00
   13     8 O     1.295607352281E+00 -2.040563657282E+00  3.066579753900E-02
   14     8 O     4.662726575229E+00  2.040563657282E+00  8.686768384359E+00
   15     8 O    -4.662726575209E+00 -1.694795992798E+00 -3.066579753900E-02
   16     8 O    -1.295607352281E+00  1.694795992798E+00 -8.686768384319E+00
   17     7 N     1.487703805590E-01  1.572065263397E+00 -1.713085852937E+00
   18     7 N     5.809563546951E+00 -1.572065263397E+00  6.943016733883E+00
   19     7 N    -5.809563546931E+00  2.163294386683E+00  1.713085852937E+00
   20     7 N    -1.487703805590E-01 -2.163294386683E+00 -6.943016733843E+00
   21     7 N    -1.487703805590E-01 -1.572065263397E+00  1.713085852937E+00
   22     7 N    -5.809563546931E+00  1.572065263397E+00 -6.943016733843E+00
   23     7 N     5.809563546951E+00 -2.163294386683E+00 -1.713085852937E+00
   24     7 N     1.487703805590E-01  2.163294386683E+00  6.943016733883E+00
   25     6 C    -2.102923639420E+00  1.740262134230E+00 -5.269607933101E+00
   26     6 C    -3.855410288070E+00 -1.740262134230E+00  3.386494653719E+00
   27     6 C     3.855410288090E+00  1.995097515850E+00  5.269607933101E+00
   28     6 C     2.102923639420E+00 -1.995097515850E+00 -3.386494653679E+00
   29     6 C     2.102923639420E+00 -1.740262134230E+00  5.269607933101E+00
   30     6 C     3.855410288090E+00  1.740262134230E+00 -3.386494653679E+00
   31     6 C    -3.855410288070E+00 -1.995097515850E+00 -5.269607933101E+00
   32     6 C    -2.102923639420E+00  1.995097515850E+00  3.386494653719E+00
   33     6 C    -6.785312949570E-01  1.616116123592E+00 -2.852812773640E+00
   34     6 C    -5.279802632533E+00 -1.616116123592E+00  5.803289813180E+00
   35     6 C     5.279802632553E+00  2.119243526488E+00  2.852812773640E+00
   36     6 C     6.785312949570E-01 -2.119243526488E+00 -5.803289813140E+00
   37     6 C     6.785312949570E-01 -1.616116123592E+00  2.852812773640E+00
   38     6 C     5.279802632553E+00  1.616116123592E+00 -5.803289813140E+00
   39     6 C    -5.279802632533E+00 -2.119243526488E+00 -2.852812773640E+00
   40     6 C    -6.785312949570E-01  2.119243526488E+00  5.803289813180E+00
   41     6 C    -1.932914732568E+00  2.220464910086E+00 -2.906000425554E+00
   42     6 C    -4.025419194922E+00 -2.220464910086E+00  5.750102161266E+00
   43     6 C     4.025419194942E+00  1.514894739994E+00  2.906000425554E+00
   44     6 C     1.932914732568E+00 -1.514894739994E+00 -5.750102161226E+00
   45     6 C     1.932914732568E+00 -2.220464910086E+00  2.906000425554E+00
   46     6 C     4.025419194942E+00  2.220464910086E+00 -5.750102161226E+00
   47     6 C    -4.025419194922E+00 -1.514894739994E+00 -2.906000425554E+00
   48     6 C    -1.932914732568E+00  1.514894739994E+00  5.750102161266E+00
   49     6 C    -2.633727801148E+00  2.280241191069E+00 -4.102748150393E+00
   50     6 C    -3.324606126342E+00 -2.280241191069E+00  4.553354436427E+00
   51     6 C     3.324606126362E+00  1.455118459011E+00  4.102748150393E+00
   52     6 C     2.633727801148E+00 -1.455118459011E+00 -4.553354436387E+00
   53     6 C     2.633727801148E+00 -2.280241191069E+00  4.102748150393E+00
   54     6 C     3.324606126362E+00  2.280241191069E+00 -4.553354436387E+00
   55     6 C    -3.324606126342E+00 -1.455118459011E+00 -4.102748150393E+00
   56     6 C    -2.633727801148E+00  1.455118459011E+00  4.553354436427E+00
   57     6 C     1.004663633718E+00  1.628853150592E+00  5.255801702560E-01
   58     6 C     4.953670293792E+00 -1.628853150592E+00 -8.130522416524E+00
   59     6 C    -4.953670293772E+00  2.106506499488E+00 -5.255801702560E-01
   60     6 C    -1.004663633718E+00 -2.106506499488E+00  8.130522416564E+00
   61     6 C    -1.004663633718E+00 -1.628853150592E+00 -5.255801702560E-01
   62     6 C    -4.953670293772E+00  1.628853150592E+00  8.130522416564E+00
   63     6 C     4.953670293792E+00 -2.106506499488E+00  5.255801702560E-01
   64     6 C     1.004663633718E+00  2.106506499488E+00 -8.130522416524E+00
   65     6 C    -8.693069084420E-01  1.098191296711E+00 -5.205713078402E+00
   66     6 C    -5.089027019048E+00 -1.098191296711E+00  3.450389508418E+00
   67     6 C     5.089027019068E+00  2.637168353369E+00  5.205713078402E+00
   68     6 C     8.693069084420E-01 -2.637168353369E+00 -3.450389508378E+00
   69     6 C     8.693069084420E-01 -1.098191296711E+00  5.205713078402E+00
   70     6 C     5.089027019068E+00  1.098191296711E+00 -3.450389508378E+00
   71     6 C    -5.089027019048E+00 -2.637168353369E+00 -5.205713078402E+00
   72     6 C    -8.693069084420E-01  2.637168353369E+00  3.450389508418E+00
   73     6 C    -1.622892469810E-01  1.759979704546E+00 -4.194052582020E-01
   74     6 C    -5.796044680509E+00 -1.759979704546E+00  8.236697328618E+00
   75     6 C     5.796044680529E+00  1.975379945534E+00  4.194052582020E-01
   76     6 C     1.622892469810E-01 -1.975379945534E+00 -8.236697328578E+00
   77     6 C     1.622892469810E-01 -1.759979704546E+00  4.194052582020E-01
   78     6 C     5.796044680529E+00  1.759979704546E+00 -8.236697328578E+00
   79     6 C    -5.796044680509E+00 -1.975379945534E+00 -4.194052582020E-01
   80     6 C    -1.622892469810E-01  1.975379945534E+00  8.236697328618E+00
   81     6 C    -1.685416323970E-01  1.042414765379E+00 -4.015311395074E+00
   82     6 C    -5.789792295093E+00 -1.042414765379E+00  4.640791191746E+00
   83     6 C     5.789792295113E+00  2.692944884701E+00  4.015311395074E+00
   84     6 C     1.685416323970E-01 -2.692944884701E+00 -4.640791191706E+00
   85     6 C     1.685416323970E-01 -1.042414765379E+00  4.015311395074E+00
   86     6 C     5.789792295113E+00  1.042414765379E+00 -4.640791191706E+00
   87     6 C    -5.789792295093E+00 -2.692944884701E+00 -4.015311395074E+00
   88     6 C    -1.685416323970E-01  2.692944884701E+00  4.640791191746E+00
   89     1 H    -2.213045023178E+00  1.713073704179E+00 -7.195878674973E+00
   90     1 H    -3.745288904312E+00 -1.713073704179E+00  1.460223911847E+00
   91     1 H     3.745288904332E+00  2.022285945901E+00  7.195878674973E+00
   92     1 H     2.213045023178E+00 -2.022285945901E+00 -1.460223911807E+00
   93     1 H     2.213045023178E+00 -1.713073704179E+00  7.195878674973E+00
   94     1 H     3.745288904332E+00  1.713073704179E+00 -1.460223911807E+00
   95     1 H    -3.745288904312E+00 -2.022285945901E+00 -7.195878674973E+00
   96     1 H    -2.213045023178E+00  2.022285945901E+00  1.460223911847E+00
   97     1 H     1.132375552083E+00  1.426636912860E+00 -1.914865741735E+00
   98     1 H     4.825958375427E+00 -1.426636912860E+00  6.741236845085E+00
   99     1 H    -4.825958375407E+00  2.308722737220E+00  1.914865741735E+00
  100     1 H    -1.132375552083E+00 -2.308722737220E+00 -6.741236845045E+00
  101     1 H    -1.132375552083E+00 -1.426636912860E+00  1.914865741735E+00
  102     1 H    -4.825958375407E+00  1.426636912860E+00 -6.741236845045E+00
  103     1 H     4.825958375427E+00 -2.308722737220E+00 -1.914865741735E+00
  104     1 H     1.132375552083E+00  2.308722737220E+00  6.741236845085E+00
  105     1 H    -2.369265007605E+00  2.671571680011E+00 -2.029778398755E+00
  106     1 H    -3.589068919885E+00 -2.671571680011E+00  6.626324188065E+00
  107     1 H     3.589068919905E+00  1.063787970069E+00  2.029778398755E+00
  108     1 H     2.369265007605E+00 -1.063787970069E+00 -6.626324188025E+00
  109     1 H     2.369265007605E+00 -2.671571680011E+00  2.029778398755E+00
  110     1 H     3.589068919905E+00  2.671571680011E+00 -6.626324188025E+00
  111     1 H    -3.589068919885E+00 -1.063787970069E+00 -2.029778398755E+00
  112     1 H    -2.369265007605E+00  1.063787970069E+00  6.626324188065E+00
  113     1 H    -3.595467867365E+00  2.777478223862E+00 -4.128133209591E+00
  114     1 H    -2.362866060125E+00 -2.777478223862E+00  4.527969377229E+00
  115     1 H     2.362866060145E+00  9.578814262180E-01  4.128133209591E+00
  116     1 H     3.595467867365E+00 -9.578814262180E-01 -4.527969377189E+00
  117     1 H     3.595467867365E+00 -2.777478223862E+00  4.128133209591E+00
  118     1 H     2.362866060145E+00  2.777478223862E+00 -4.527969377189E+00
  119     1 H    -2.362866060125E+00 -9.578814262180E-01 -4.128133209591E+00
  120     1 H    -3.595467867365E+00  9.578814262180E-01  4.527969377229E+00
  121     1 H     1.475704701079E+00  2.604528134848E+00  6.609117407150E-01
  122     1 H     4.482629226431E+00 -2.604528134848E+00 -7.995190846065E+00
  123     1 H    -4.482629226411E+00  1.130831515232E+00 -6.609117407150E-01
  124     1 H    -1.475704701079E+00 -1.130831515232E+00  7.995190846105E+00
  125     1 H    -1.475704701079E+00 -2.604528134848E+00 -6.609117407150E-01
  126     1 H    -4.482629226411E+00  2.604528134848E+00  7.995190846105E+00
  127     1 H     4.482629226431E+00 -1.130831515232E+00  6.609117407150E-01
  128     1 H     1.475704701079E+00  1.130831515232E+00 -7.995190846065E+00
  129     1 H     1.766362031105E+00  9.415303304970E-01  1.627050950100E-01
  130     1 H     4.191971896405E+00 -9.415303304970E-01 -8.493397491770E+00
  131     1 H    -4.191971896385E+00  2.793829319583E+00 -1.627050950100E-01
  132     1 H    -1.766362031105E+00 -2.793829319583E+00  8.493397491810E+00
  133     1 H    -1.766362031105E+00 -9.415303304970E-01 -1.627050950100E-01
  134     1 H    -4.191971896385E+00  9.415303304970E-01  8.493397491810E+00
  135     1 H     4.191971896405E+00 -2.793829319583E+00  1.627050950100E-01
  136     1 H     1.766362031105E+00  2.793829319583E+00 -8.493397491770E+00
  137     1 H     6.630597715560E-01  1.284607077144E+00  1.498844626245E+00
  138     1 H     5.295274155954E+00 -1.284607077144E+00 -7.157257960535E+00
  139     1 H    -5.295274155934E+00  2.450752572936E+00 -1.498844626245E+00
  140     1 H    -6.630597715560E-01 -2.450752572936E+00  7.157257960575E+00
  141     1 H    -6.630597715560E-01 -1.284607077144E+00 -1.498844626245E+00
  142     1 H    -5.295274155934E+00  1.284607077144E+00  7.157257960575E+00
  143     1 H     5.295274155954E+00 -2.450752572936E+00  1.498844626245E+00
  144     1 H     6.630597715560E-01  2.450752572936E+00 -7.157257960535E+00
  145     1 H    -4.530104977240E-01  6.212325663410E-01 -6.083069651665E+00
  146     1 H    -5.505323429766E+00 -6.212325663410E-01  2.573032935155E+00
  147     1 H     5.505323429786E+00  3.114127083739E+00  6.083069651665E+00
  148     1 H     4.530104977240E-01 -3.114127083739E+00 -2.573032935115E+00
  149     1 H     4.530104977240E-01 -6.212325663410E-01  6.083069651665E+00
  150     1 H     5.505323429786E+00  6.212325663410E-01 -2.573032935115E+00
  151     1 H    -5.505323429766E+00 -3.114127083739E+00 -6.083069651665E+00
  152     1 H    -4.530104977240E-01  3.114127083739E+00  2.573032935155E+00
  153     1 H     7.908127085990E-01  5.377518081780E-01 -4.001416947089E+00
  154     1 H     5.167521218911E+00 -5.377518081780E-01  4.654685639731E+00
  155     1 H    -5.167521218891E+00  3.197607841902E+00  4.001416947089E+00
  156     1 H    -7.908127085990E-01 -3.197607841902E+00 -4.654685639691E+00
  157     1 H    -7.908127085990E-01 -5.377518081780E-01  4.001416947089E+00
  158     1 H    -5.167521218891E+00  5.377518081780E-01 -4.654685639691E+00
  159     1 H     5.167521218911E+00 -3.197607841902E+00 -4.001416947089E+00
  160     1 H     7.908127085990E-01  3.197607841902E+00  4.654685639731E+00

 *******************************************************************************
 STARTING BASIS SET HANDLING 
 *******************************************************************************

 Loading internal basis set: DEF2-MSVP           

 Please cite in your publication:
 Fully Optimized Contracted Gaussian Basis Sets for Atoms Li to Kr. A. Schfer, H. Horn and R. Ahlrichs; J. Chem. Phys. 97, 2571 (1992).                                                                                                                         
 S. Grimme, J. G. Brandenburg, C. Bannwarth, and A. Hansen, J. Chem. Phys., 143, 054107 (2015).                                                                                                                                                                  

 *******************************************************************************
 LOCAL ATOMIC FUNCTIONS BASIS SET
 *******************************************************************************
   ATOM   X(AU)   Y(AU)   Z(AU)  N. TYPE  EXPONENT  S COEF   P COEF   D/F/G COEF
 *******************************************************************************
   1 O   -5.290   3.485 -12.133
                                  1 S  
                                         6.773E+03 1.727E-03 0.000E+00 0.000E+00
                                         1.017E+03 1.325E-02 0.000E+00 0.000E+00
                                         2.313E+02 6.603E-02 0.000E+00 0.000E+00
                                         6.501E+01 2.353E-01 0.000E+00 0.000E+00
                                         2.050E+01 5.498E-01 0.000E+00 0.000E+00
                                  2 S  
                                         6.716E+00 1.000E+00 0.000E+00 0.000E+00
                                  3 S  
                                         1.147E+00 1.000E+00 0.000E+00 0.000E+00
                                  4 S  
                                         3.342E-01 1.000E+00 0.000E+00 0.000E+00
                           5-     7 P  
                                         1.769E+01 0.000E+00 4.359E-02 0.000E+00
                                         3.854E+00 0.000E+00 2.318E-01 0.000E+00
                                         1.047E+00 0.000E+00 5.146E-01 0.000E+00
                           8-    10 P  
                                         2.759E-01 0.000E+00 1.000E+00 0.000E+00
                          11-    15 D  
                                         8.000E-01 0.000E+00 0.000E+00 1.000E+00
   2 O   -5.970  -3.485   4.225
   3 O    5.970   3.573  12.133
   4 O    5.290  -3.573  -4.225
   5 O    5.290  -3.485  12.133
   6 O    5.970   3.485  -4.225
   7 O   -5.970  -3.573 -12.133
   8 O   -5.290   3.573   4.225
   9 O   -2.448   3.856  -0.058
  10 O   -8.811  -3.856 -16.416
  11 O    8.811   3.203   0.058
  12 O    2.448  -3.203  16.416
  13 O    2.448  -3.856   0.058
  14 O    8.811   3.856  16.416
  15 O   -8.811  -3.203  -0.058
  16 O   -2.448   3.203 -16.416
  17 N    0.281   2.971  -3.237
                                241 S  
                                         5.072E+03 1.707E-03 0.000E+00 0.000E+00
                                         7.614E+02 1.309E-02 0.000E+00 0.000E+00
                                         1.732E+02 6.510E-02 0.000E+00 0.000E+00
                                         4.867E+01 2.305E-01 0.000E+00 0.000E+00
                                         1.533E+01 5.330E-01 0.000E+00 0.000E+00
                                242 S  
                                         5.019E+00 1.000E+00 0.000E+00 0.000E+00
                                243 S  
                                         8.355E-01 1.000E+00 0.000E+00 0.000E+00
                                244 S  
                                         2.463E-01 1.000E+00 0.000E+00 0.000E+00
                         245-   247 P  
                                         1.355E+01 0.000E+00 4.063E-02 0.000E+00
                                         2.918E+00 0.000E+00 2.209E-01 0.000E+00
                                         7.983E-01 0.000E+00 5.186E-01 0.000E+00
                         248-   250 P  
                                         2.190E-01 0.000E+00 1.000E+00 0.000E+00
                         251-   255 D  
                                         8.000E-01 0.000E+00 0.000E+00 1.000E+00
  18 N   10.978  -2.971  13.120
  19 N  -10.978   4.088   3.237
  20 N   -0.281  -4.088 -13.120
  21 N   -0.281  -2.971   3.237
  22 N  -10.978   2.971 -13.120
  23 N   10.978  -4.088  -3.237
  24 N    0.281   4.088  13.120
  25 C   -3.974   3.289  -9.958
                                361 S  
                                         3.624E+03 1.634E-03 0.000E+00 0.000E+00
                                         5.440E+02 1.252E-02 0.000E+00 0.000E+00
                                         1.237E+02 6.211E-02 0.000E+00 0.000E+00
                                         3.476E+01 2.182E-01 0.000E+00 0.000E+00
                                         1.093E+01 4.980E-01 0.000E+00 0.000E+00
                                362 S  
                                         3.574E+00 1.000E+00 0.000E+00 0.000E+00
                                363 S  
                                         5.748E-01 1.000E+00 0.000E+00 0.000E+00
                                364 S  
                                         1.730E-01 1.000E+00 0.000E+00 0.000E+00
                         365-   367 P  
                                         9.443E+00 0.000E+00 3.790E-02 0.000E+00
                                         2.002E+00 0.000E+00 2.082E-01 0.000E+00
                                         5.463E-01 0.000E+00 5.047E-01 0.000E+00
                         368-   370 P  
                                         1.520E-01 0.000E+00 1.000E+00 0.000E+00
                         371-   375 D  
                                         8.000E-01 0.000E+00 0.000E+00 1.000E+00
  26 C   -7.286  -3.289   6.400
  27 C    7.286   3.770   9.958
  28 C    3.974  -3.770  -6.400
  29 C    3.974  -3.289   9.958
  30 C    7.286   3.289  -6.400
  31 C   -7.286  -3.770  -9.958
  32 C   -3.974   3.770   6.400
  33 C   -1.282   3.054  -5.391
  34 C   -9.977  -3.054  10.967
  35 C    9.977   4.005   5.391
  36 C    1.282  -4.005 -10.967
  37 C    1.282  -3.054   5.391
  38 C    9.977   3.054 -10.967
  39 C   -9.977  -4.005  -5.391
  40 C   -1.282   4.005  10.967
  41 C   -3.653   4.196  -5.492
  42 C   -7.607  -4.196  10.866
  43 C    7.607   2.863   5.492
  44 C    3.653  -2.863 -10.866
  45 C    3.653  -4.196   5.492
  46 C    7.607   4.196 -10.866
  47 C   -7.607  -2.863  -5.492
  48 C   -3.653   2.863  10.866
  49 C   -4.977   4.309  -7.753
  50 C   -6.283  -4.309   8.605
  51 C    6.283   2.750   7.753
  52 C    4.977  -2.750  -8.605
  53 C    4.977  -4.309   7.753
  54 C    6.283   4.309  -8.605
  55 C   -6.283  -2.750  -7.753
  56 C   -4.977   2.750   8.605
  57 C    1.899   3.078   0.993
  58 C    9.361  -3.078 -15.364
  59 C   -9.361   3.981  -0.993
  60 C   -1.899  -3.981  15.364
  61 C   -1.899  -3.078  -0.993
  62 C   -9.361   3.078  15.364
  63 C    9.361  -3.981   0.993
  64 C    1.899   3.981 -15.364
  65 C   -1.643   2.075  -9.837
  66 C   -9.617  -2.075   6.520
  67 C    9.617   4.984   9.837
  68 C    1.643  -4.984  -6.520
  69 C    1.643  -2.075   9.837
  70 C    9.617   2.075  -6.520
  71 C   -9.617  -4.984  -9.837
  72 C   -1.643   4.984   6.520
  73 C   -0.307   3.326  -0.793
  74 C  -10.953  -3.326  15.565
  75 C   10.953   3.733   0.793
  76 C    0.307  -3.733 -15.565
  77 C    0.307  -3.326   0.793
  78 C   10.953   3.326 -15.565
  79 C  -10.953  -3.733  -0.793
  80 C   -0.307   3.733  15.565
  81 C   -0.318   1.970  -7.588
  82 C  -10.941  -1.970   8.770
  83 C   10.941   5.089   7.588
  84 C    0.318  -5.089  -8.770
  85 C    0.318  -1.970   7.588
  86 C   10.941   1.970  -8.770
  87 C  -10.941  -5.089  -7.588
  88 C   -0.318   5.089   8.770
  89 H   -4.182   3.237 -13.598
                               1321 S  
                                         1.874E+01 1.968E-02 0.000E+00 0.000E+00
                                         2.826E+00 1.380E-01 0.000E+00 0.000E+00
                                         6.401E-01 4.783E-01 0.000E+00 0.000E+00
                               1322 S  
                                         1.756E-01 1.000E+00 0.000E+00 0.000E+00
  90 H   -7.078  -3.237   2.759
  91 H    7.078   3.822  13.598
  92 H    4.182  -3.822  -2.759
  93 H    4.182  -3.237  13.598
  94 H    7.078   3.237  -2.759
  95 H   -7.078  -3.822 -13.598
  96 H   -4.182   3.822   2.759
  97 H    2.140   2.696  -3.619
  98 H    9.120  -2.696  12.739
  99 H   -9.120   4.363   3.619
 100 H   -2.140  -4.363 -12.739
 101 H   -2.140  -2.696   3.619
 102 H   -9.120   2.696 -12.739
 103 H    9.120  -4.363  -3.619
 104 H    2.140   4.363  12.739
 105 H   -4.477   5.049  -3.836
 106 H   -6.782  -5.049  12.522
 107 H    6.782   2.010   3.836
 108 H    4.477  -2.010 -12.522
 109 H    4.477  -5.049   3.836
 110 H    6.782   5.049 -12.522
 111 H   -6.782  -2.010  -3.836
 112 H   -4.477   2.010  12.522
 113 H   -6.794   5.249  -7.801
 114 H   -4.465  -5.249   8.557
 115 H    4.465   1.810   7.801
 116 H    6.794  -1.810  -8.557
 117 H    6.794  -5.249   7.801
 118 H    4.465   5.249  -8.557
 119 H   -4.465  -1.810  -7.801
 120 H   -6.794   1.810   8.557
 121 H    2.789   4.922   1.249
 122 H    8.471  -4.922 -15.109
 123 H   -8.471   2.137  -1.249
 124 H   -2.789  -2.137  15.109
 125 H   -2.789  -4.922  -1.249
 126 H   -8.471   4.922  15.109
 127 H    8.471  -2.137   1.249
 128 H    2.789   2.137 -15.109
 129 H    3.338   1.779   0.307
 130 H    7.922  -1.779 -16.050
 131 H   -7.922   5.280  -0.307
 132 H   -3.338  -5.280  16.050
 133 H   -3.338  -1.779  -0.307
 134 H   -7.922   1.779  16.050
 135 H    7.922  -5.280   0.307
 136 H    3.338   5.280 -16.050
 137 H    1.253   2.428   2.832
 138 H   10.007  -2.428 -13.525
 139 H  -10.007   4.631  -2.832
 140 H   -1.253  -4.631  13.525
 141 H   -1.253  -2.428  -2.832
 142 H  -10.007   2.428  13.525
 143 H   10.007  -4.631   2.832
 144 H    1.253   4.631 -13.525
 145 H   -0.856   1.174 -11.495
 146 H  -10.404  -1.174   4.862
 147 H   10.404   5.885  11.495
 148 H    0.856  -5.885  -4.862
 149 H    0.856  -1.174  11.495
 150 H   10.404   1.174  -4.862
 151 H  -10.404  -5.885 -11.495
 152 H   -0.856   5.885   4.862
 153 H    1.494   1.016  -7.562
 154 H    9.765  -1.016   8.796
 155 H   -9.765   6.043   7.562
 156 H   -1.494  -6.043  -8.796
 157 H   -1.494  -1.016   7.562
 158 H   -9.765   1.016  -8.796
 159 H    9.765  -6.043  -7.562
 160 H    1.494   6.043   8.796

 *******************************************************************************
 FINISHED BASIS SET HANDLING 
 *******************************************************************************

 INFORMATION **** SET_MPP **** PCRYSTAL CALCULATION
 INFORMATION **** READM2 **** NEW DEFAULT: FOCK/KS MATRIX MIXING SET TO 30 %
 INFORMATION **** READM2 **** NEW DEFAULT: FULL DIRECT SCF MODE
 INFORMATION **** READM2 **** NEW DEFAULT: COULOMB BIPOLAR BUFFER SET TO 32 Mb
 INFORMATION **** READM2 **** NEW DEFAULT: EXCHANGE BIPOLAR BUFFER SET TO 32 Mb

 *******************************************************************************
 NEW DEFAULT: DFT INTEGRATION GRID INCREASED TO XLGRID
 NEW DEFAULT: DIIS ACCELERATOR ACTIVE
 USE KEYWORD NODIIS TO TURN IT OFF
 *******************************************************************************

 INFORMATION **** RDDFTP **** PBEh-3c calculation
 INFORMATION **** RDDFTP **** PBEh hybrid functional combined with D3 and gCP

PLEASE CITE:
(1) PBEh-3c Reference
 S. Grimme, J. G. Brandenburg, C. Bannwarth, and A. Hansen, 
 J. Chem. Phys. 143, 054107 (2015)
(2) DFT-D3 Reference
 S. Grimme, J. Antony, S. Ehrlich, and H. Krieg, J. Chem. Phys. 132, 154104 (2010)
(3) gCP Reference
 H. Kruse and S. Grimme J. Chem. Phys, 136, 154101 (2012)
 J. G. Brandenburg, M. Alessio, B. Civalleri, M. F. Peintinger
 T. Bredow, and S. Grimme, J. Phys. Chem. A, 117, 9282 (2013) 

 WARNING **** RDDFTP **** PBEh-3c has to be combined with def2-mSVP basis set
 WARNING **** RDDFTP **** Note: Harmonic frequencies are scaled by 0.95
 WARNING **** RDDFTP **** as recommended in original publication
 INFORMATION **** TOLDEE **** SCF TOL ON TOTAL ENERGY SET TO           9
 INFORMATION **** TOLINTEG **** COULOMB AND EXCHANGE SERIES TOLERANCES MODIFIED
 INFORMATION **** MAXCYCLE **** MAX NUMBER OF SCF CYCLES SET TO          30
 WARNING **** READM2 **** PROBABLE LOSS IN FREQCALC ACCURACY; SCF TOL LT          10
 *******************************************************************************
 N. OF ATOMS PER CELL       160  COULOMB OVERLAP TOL         (T1) 10**   -8
 NUMBER OF SHELLS           760  COULOMB PENETRATION TOL     (T2) 10**   -8
 NUMBER OF AO              1464  EXCHANGE OVERLAP TOL        (T3) 10**   -8
 N. OF ELECTRONS PER CELL   640  EXCHANGE PSEUDO OVP (F(G))  (T4) 10**   -8
 CORE ELECTRONS PER CELL    176  EXCHANGE PSEUDO OVP (P(G))  (T5) 10**  -24
 N. OF SYMMETRY OPERATORS     8  POLE ORDER IN MONO ZONE                  4
 *******************************************************************************
 TYPE OF CALCULATION :  RESTRICTED CLOSED SHELL
 KOHN-SHAM HAMILTONIAN

 (EXCHANGE)[CORRELATION] FUNCTIONAL:(PBEh-3c)[PBEh-3c]


 HYBRID EXCHANGE - PERCENTAGE OF FOCK EXCHANGE    42.0000

 CAPPA:IS1  4;IS2  4;IS3  2; K PTS MONK NET  18; SYMMOPS:K SPACE   8;G SPACE   8

 *******************************************************************************
 MAX NUMBER OF SCF CYCLES      30  CONVERGENCE ON DELTAP        10**-19
 WEIGHT OF F(I) IN F(I+1)      50% CONVERGENCE ON ENERGY        10**- 9
 SHRINK. FACT.(MONKH.)    4  4  2  NUMBER OF K POINTS IN THE IBZ     18
 SHRINKING FACTOR(GILAT NET)    4  NUMBER OF K POINTS(GILAT NET)     18
 *******************************************************************************
 *** K POINTS COORDINATES (OBLIQUE COORDINATES IN UNITS OF IS =  4)
   1-R(  0  0  0)   2-C(  1  0  0)   3-R(  2  0  0)   4-C(  0  1  0)
   5-C(  1  1  0)   6-C(  2  1  0)   7-R(  0  2  0)   8-C(  1  2  0)
   9-R(  2  2  0)  10-R(  0  0  1)  11-C(  1  0  1)  12-R(  2  0  1)
  13-C(  0  1  1)  14-C(  1  1  1)  15-C(  2  1  1)  16-R(  0  2  1)
  17-C(  1  2  1)  18-R(  2  2  1)

 DIRECT LATTICE VECTORS COMPON. (A.U.)     RECIP. LATTICE VECTORS COMPON. (A.U.) 
        X            Y            Z              X            Y            Z
   22.5192387    0.0000000    0.0000000      0.2790141    0.0000000    0.0000000
    0.0000000   14.1176135    0.0000000      0.0000000    0.4450600    0.0000000
    0.0000000    0.0000000   32.7153266      0.0000000    0.0000000    0.1920563

 DISK SPACE FOR EIGENVECTORS (FTN 10)    60012288 REALS

 SYMMETRY ADAPTION OF THE BLOCH FUNCTIONS ENABLED
 TTTTTTTTTTTTTTTTTTTTTTTTTTTTTT gordsh1     TELAPSE        4.15 TCPU        2.93

 MATRIX SIZE: P(G) 4478896, F(G)  418452, P(G) IRR  284329, F(G) IRR   52985
 MAX G-VECTOR INDEX FOR 1- AND 2-ELECTRON INTEGRALS  75

 TTTTTTTTTTTTTTTTTTTTTTTTTTTTTT INPUT       TELAPSE        4.29 TCPU        3.06

 NEIGHBORS OF THE NON-EQUIVALENT ATOMS

 N = NUMBER OF NEIGHBORS AT DISTANCE R
    ATOM  N     R/ANG      R/AU   NEIGHBORS (ATOM LABELS AND CELL INDICES)
   1 O    1     0.9810     1.8538   89 H    0 0 0
   1 O    1     1.3491     2.5495   25 C    0 0 0
   1 O    1     2.0940     3.9570  102 H    0 0 0
   1 O    1     2.3641     4.4674   49 C    0 0 0
   1 O    1     2.3994     4.5342   65 C    0 0 0
   1 O    1     2.5998     4.9129  113 H    0 0 0

   9 O    1     1.2306     2.3254   73 C    0 0 0
   9 O    1     1.7507     3.3083   96 H    0 0 0
   9 O    1     2.2663     4.2827   17 N    0 0 0
   9 O    1     2.3553     4.4508  105 H    0 0 0
   9 O    1     2.4021     4.5393   57 C    0 0 0
   9 O    1     2.5975     4.9087  137 H    0 0 0

  17 N    1     1.0146     1.9173   97 H    0 0 0
  17 N    1     1.3438     2.5393   73 C    0 0 0
  17 N    1     1.4090     2.6627   33 C    0 0 0
  17 N    1     2.2663     4.2827    9 O    0 0 0
  17 N    1     2.3836     4.5043   81 C    0 0 0
  17 N    1     2.3974     4.5304   57 C    0 0 0

  25 C    1     1.3491     2.5495    1 O    0 0 0
  25 C    1     1.3910     2.6286   49 C    0 0 0
  25 C    1     1.3922     2.6308   65 C    0 0 0
  25 C    1     1.9296     3.6464   89 H    0 0 0
  25 C    1     2.1463     4.0559  113 H    0 0 0
  25 C    1     2.1532     4.0689  145 H    0 0 0

  33 C    1     1.3931     2.6325   81 C    0 0 0
  33 C    1     1.3934     2.6331   41 C    0 0 0
  33 C    1     1.4090     2.6627   17 N    0 0 0
  33 C    1     2.0482     3.8705   97 H    0 0 0
  33 C    1     2.1543     4.0711  153 H    0 0 0
  33 C    1     2.1564     4.0750  105 H    0 0 0

  41 C    1     1.0778     2.0368  105 H    0 0 0
  41 C    1     1.3881     2.6232   49 C    0 0 0
  41 C    1     1.3934     2.6331   33 C    0 0 0
  41 C    1     2.1373     4.0389  113 H    0 0 0
  41 C    1     2.3940     4.5241   81 C    0 0 0
  41 C    1     2.4179     4.5691   25 C    0 0 0

  49 C    1     1.0830     2.0465  113 H    0 0 0
  49 C    1     1.3881     2.6232   41 C    0 0 0
  49 C    1     1.3910     2.6286   25 C    0 0 0
  49 C    1     2.1261     4.0177  105 H    0 0 0
  49 C    1     2.3641     4.4674    1 O    0 0 0
  49 C    1     2.3931     4.5223   65 C    0 0 0

  57 C    1     1.0874     2.0549  137 H    0 0 0
  57 C    1     1.0882     2.0565  129 H    0 0 0
  57 C    1     1.0918     2.0633  121 H    0 0 0
  57 C    1     1.5073     2.8484   73 C    0 0 0
  57 C    1     2.3974     4.5304   17 N    0 0 0
  57 C    1     2.4021     4.5393    9 O    0 0 0

  65 C    1     1.0819     2.0445  145 H    0 0 0
  65 C    1     1.3825     2.6125   81 C    0 0 0
  65 C    1     1.3922     2.6308   25 C    0 0 0
  65 C    1     2.1261     4.0178  153 H    0 0 0
  65 C    1     2.3931     4.5223   49 C    0 0 0
  65 C    1     2.3994     4.5342    1 O    0 0 0

  73 C    1     1.2306     2.3254    9 O    0 0 0
  73 C    1     1.3438     2.5393   17 N    0 0 0
  73 C    1     1.5073     2.8484   57 C    0 0 0
  73 C    1     2.0059     3.7906   97 H    0 0 0
  73 C    1     2.1362     4.0368  121 H    0 0 0
  73 C    1     2.1417     4.0472  137 H    0 0 0

  81 C    1     1.0841     2.0486  153 H    0 0 0
  81 C    1     1.3825     2.6125   65 C    0 0 0
  81 C    1     1.3931     2.6325   33 C    0 0 0
  81 C    1     2.1293     4.0238  145 H    0 0 0
  81 C    1     2.3836     4.5043   17 N    0 0 0
  81 C    1     2.3940     4.5241   41 C    0 0 0

  89 H    1     0.9810     1.8538    1 O    0 0 0
  89 H    1     1.7507     3.3083   16 O    0 0 0
  89 H    1     1.9296     3.6464   25 C    0 0 0
  89 H    1     2.3512     4.4431  145 H    0 0 0
  89 H    1     2.4788     4.6843   65 C    0 0 0
  89 H    1     2.6676     5.0410  102 H    0 0 0

  97 H    1     1.0146     1.9173   17 N    0 0 0
  97 H    1     2.0059     3.7906   73 C    0 0 0
  97 H    1     2.0482     3.8705   33 C    0 0 0
  97 H    1     2.0940     3.9570    6 O    0 0 0
  97 H    1     2.2257     4.2059  129 H    0 0 0
  97 H    1     2.2936     4.3342  153 H    0 0 0

 105 H    1     1.0778     2.0368   41 C    0 0 0
 105 H    1     2.1261     4.0177   49 C    0 0 0
 105 H    1     2.1564     4.0750   33 C    0 0 0
 105 H    1     2.3553     4.4508    9 O    0 0 0
 105 H    1     2.4327     4.5971  113 H    0 0 0
 105 H    1     2.6121     4.9362  131 H    0 0 0

 113 H    1     1.0830     2.0465   49 C    0 0 0
 113 H    1     2.1373     4.0389   41 C    0 0 0
 113 H    1     2.1463     4.0559   25 C    0 0 0
 113 H    1     2.4327     4.5971  105 H    0 0 0
 113 H    1     2.5998     4.9129    1 O    0 0 0
 113 H    1     2.7603     5.2162   71 C    0 1 0

 121 H    1     1.0918     2.0633   57 C    0 0 0
 121 H    1     1.7602     3.3263  129 H    0 0 0
 121 H    1     1.7620     3.3297  137 H    0 0 0
 121 H    1     2.1362     4.0368   73 C    0 0 0
 121 H    1     2.7365     5.1713  109 H    0 1 0
 121 H    1     2.7633     5.2219  152 H    0 0 0

 129 H    1     1.0882     2.0565   57 C    0 0 0
 129 H    1     1.7602     3.3263  121 H    0 0 0
 129 H    1     1.7664     3.3381  137 H    0 0 0
 129 H    1     2.1745     4.1092   73 C    0 0 0
 129 H    1     2.2257     4.2059   97 H    0 0 0
 129 H    1     2.5559     4.8300   17 N    0 0 0

 137 H    1     1.0874     2.0549   57 C    0 0 0
 137 H    1     1.7620     3.3297  121 H    0 0 0
 137 H    1     1.7664     3.3381  129 H    0 0 0
 137 H    1     2.1417     4.0472   73 C    0 0 0
 137 H    1     2.3972     4.5301  152 H    0 0 0
[...]
Note: The following floating-point exceptions are signalling: IEEE_UNDERFLOW_FLAG IEEE_DENORMAL
Note: The following floating-point exceptions are signalling: IEEE_UNDERFLOW_FLAG IEEE_DENORMAL
Note: The following floating-point exceptions are signalling: IEEE_UNDERFLOW_FLAG IEEE_DENORMAL
Note: The following floating-point exceptions are signalling: IEEE_UNDERFLOW_FLAG IEEE_DENORMAL
Note: The following floating-point exceptions are signalling: IEEE_UNDERFLOW_FLAG IEEE_DENORMAL
Note: The following floating-point exceptions are signalling: IEEE_UNDERFLOW_FLAG IEEE_DENORMAL
Note: The following floating-point exceptions are signalling: IEEE_UNDERFLOW_FLAG IEEE_DENORMAL
Note: The following floating-point exceptions are signalling: IEEE_UNDERFLOW_FLAG IEEE_DENORMAL
Note: The following floating-point exceptions are signalling: IEEE_UNDERFLOW_FLAG IEEE_DENORMAL
Note: The following floating-point exceptions are signalling: IEEE_UNDERFLOW_FLAG IEEE_DENORMAL
Note: The following floating-point exceptions are signalling: IEEE_UNDERFLOW_FLAG IEEE_DENORMAL
Note: The following floating-point exceptions are signalling: IEEE_UNDERFLOW_FLAG IEEE_DENORMAL
Note: The following floating-point exceptions are signalling: IEEE_UNDERFLOW_FLAG IEEE_DENORMAL
Note: The following floating-point exceptions are signalling: IEEE_UNDERFLOW_FLAG IEEE_DENORMAL
Note: The following floating-point exceptions are signalling: IEEE_UNDERFLOW_FLAG IEEE_DENORMAL
Note: The following floating-point exceptions are signalling: IEEE_UNDERFLOW_FLAG IEEE_DENORMAL
Note: The following floating-point exceptions are signalling: IEEE_UNDERFLOW_FLAG IEEE_DENORMAL
Note: The following floating-point exceptions are signalling: IEEE_UNDERFLOW_FLAG IEEE_DENORMAL
Note: The following floating-point exceptions are signalling: IEEE_UNDERFLOW_FLAG IEEE_DENORMAL
Note: The following floating-point exceptions are signalling: IEEE_UNDERFLOW_FLAG IEEE_DENORMAL
Note: The following floating-point exceptions are signalling: IEEE_UNDERFLOW_FLAG IEEE_DENORMAL
Note: The following floating-point exceptions are signalling: IEEE_UNDERFLOW_FLAG IEEE_DENORMAL
Note: The following floating-point exceptions are signalling: IEEE_UNDERFLOW_FLAG IEEE_DENORMAL
Note: The following floating-point exceptions are signalling: IEEE_UNDERFLOW_FLAG IEEE_DENORMAL
Note: The following floating-point exceptions are signalling: IEEE_UNDERFLOW_FLAG IEEE_DENORMAL
Note: The following floating-point exceptions are signalling: IEEE_UNDERFLOW_FLAG IEEE_DENORMAL
Note: The following floating-point exceptions are signalling: IEEE_UNDERFLOW_FLAG IEEE_DENORMAL
Note: The following floating-point exceptions are signalling: IEEE_UNDERFLOW_FLAG IEEE_DENORMAL
Note: The following floating-point exceptions are signalling: IEEE_UNDERFLOW_FLAG IEEE_DENORMAL
Note: The following floating-point exceptions are signalling: IEEE_UNDERFLOW_FLAG IEEE_DENORMAL
Note: The following floating-point exceptions are signalling: IEEE_UNDERFLOW_FLAG IEEE_DENORMAL
Note: The following floating-point exceptions are signalling: IEEE_UNDERFLOW_FLAG IEEE_DENORMAL
Note: The following floating-point exceptions are signalling: IEEE_UNDERFLOW_FLAG IEEE_DENORMAL
Note: The following floating-point exceptions are signalling: IEEE_UNDERFLOW_FLAG IEEE_DENORMAL
Note: The following floating-point exceptions are signalling: IEEE_UNDERFLOW_FLAG IEEE_DENORMAL
Note: The following floating-point exceptions are signalling: IEEE_UNDERFLOW_FLAG IEEE_DENORMAL
Note: The following floating-point exceptions are signalling: IEEE_UNDERFLOW_FLAG IEEE_DENORMAL
Note: The following floating-point exceptions are signalling: IEEE_UNDERFLOW_FLAG IEEE_DENORMAL
Note: The following floating-point exceptions are signalling: IEEE_UNDERFLOW_FLAG IEEE_DENORMAL
Note: The following floating-point exceptions are signalling: IEEE_UNDERFLOW_FLAG IEEE_DENORMAL
Note: The following floating-point exceptions are signalling: IEEE_UNDERFLOW_FLAG IEEE_DENORMAL
Note: The following floating-point exceptions are signalling: IEEE_UNDERFLOW_FLAG IEEE_DENORMAL
Note: The following floating-point exceptions are signalling: IEEE_UNDERFLOW_FLAG IEEE_DENORMAL
Note: The following floating-point exceptions are signalling: IEEE_UNDERFLOW_FLAG IEEE_DENORMAL
Note: The following floating-point exceptions are signalling: IEEE_UNDERFLOW_FLAG IEEE_DENORMAL
Note: The following floating-point exceptions are signalling: IEEE_UNDERFLOW_FLAG IEEE_DENORMAL
Note: The following floating-point exceptions are signalling: IEEE_UNDERFLOW_FLAG IEEE_DENORMAL
Note: The following floating-point exceptions are signalling: IEEE_UNDERFLOW_FLAG IEEE_DENORMAL
Note: The following floating-point exceptions are signalling: IEEE_UNDERFLOW_FLAG IEEE_DENORMAL
Note: The following floating-point exceptions are signalling: IEEE_UNDERFLOW_FLAG IEEE_DENORMAL
Note: The following floating-point exceptions are signalling: IEEE_UNDERFLOW_FLAG IEEE_DENORMAL
Note: The following floating-point exceptions are signalling: IEEE_UNDERFLOW_FLAG IEEE_DENORMAL
Note: The following floating-point exceptions are signalling: IEEE_UNDERFLOW_FLAG IEEE_DENORMAL
Note: The following floating-point exceptions are signalling: IEEE_UNDERFLOW_FLAG IEEE_DENORMAL
Note: The following floating-point exceptions are signalling: IEEE_UNDERFLOW_FLAG IEEE_DENORMAL
Note: The following floating-point exceptions are signalling: IEEE_UNDERFLOW_FLAG IEEE_DENORMAL
Note: The following floating-point exceptions are signalling: IEEE_UNDERFLOW_FLAG IEEE_DENORMAL
Note: The following floating-point exceptions are signalling: IEEE_UNDERFLOW_FLAG IEEE_DENORMAL
Note: The following floating-point exceptions are signalling: IEEE_UNDERFLOW_FLAG IEEE_DENORMAL
Note: The following floating-point exceptions are signalling: IEEE_UNDERFLOW_FLAG IEEE_DENORMAL
Note: The following floating-point exceptions are signalling: IEEE_UNDERFLOW_FLAG IEEE_DENORMAL
Note: The following floating-point exceptions are signalling: IEEE_UNDERFLOW_FLAG IEEE_DENORMAL
Note: The following floating-point exceptions are signalling: IEEE_UNDERFLOW_FLAG IEEE_DENORMAL
Note: The following floating-point exceptions are signalling: IEEE_UNDERFLOW_FLAG IEEE_DENORMAL
Note: The following floating-point exceptions are signalling: IEEE_UNDERFLOW_FLAG IEEE_DENORMAL
Note: The following floating-point exceptions are signalling: IEEE_UNDERFLOW_FLAG IEEE_DENORMAL
Note: The following floating-point exceptions are signalling: IEEE_UNDERFLOW_FLAG IEEE_DENORMAL
Note: The following floating-point exceptions are signalling: IEEE_UNDERFLOW_FLAG IEEE_DENORMAL
Note: The following floating-point exceptions are signalling: IEEE_UNDERFLOW_FLAG IEEE_DENORMAL
Note: The following floating-point exceptions are signalling: IEEE_UNDERFLOW_FLAG IEEE_DENORMAL
Note: The following floating-point exceptions are signalling: IEEE_UNDERFLOW_FLAG IEEE_DENORMAL
Note: The following floating-point exceptions are signalling: IEEE_UNDERFLOW_FLAG IEEE_DENORMAL
Note: The following floating-point exceptions are signalling: IEEE_UNDERFLOW_FLAG IEEE_DENORMAL
Note: The following floating-point exceptions are signalling: IEEE_UNDERFLOW_FLAG IEEE_DENORMAL
Note: The following floating-point exceptions are signalling: IEEE_UNDERFLOW_FLAG IEEE_DENORMAL
Note: The following floating-point exceptions are signalling: IEEE_UNDERFLOW_FLAG IEEE_DENORMAL
Note: The following floating-point exceptions are signalling: IEEE_UNDERFLOW_FLAG IEEE_DENORMAL
Note: The following floating-point exceptions are signalling: IEEE_UNDERFLOW_FLAG IEEE_DENORMAL
Note: The following floating-point exceptions are signalling: IEEE_UNDERFLOW_FLAG IEEE_DENORMAL
Note: The following floating-point exceptions are signalling: IEEE_UNDERFLOW_FLAG IEEE_DENORMAL
Note: The following floating-point exceptions are signalling: IEEE_UNDERFLOW_FLAG IEEE_DENORMAL
Note: The following floating-point exceptions are signalling: IEEE_UNDERFLOW_FLAG IEEE_DENORMAL
Note: The following floating-point exceptions are signalling: IEEE_UNDERFLOW_FLAG IEEE_DENORMAL
Note: The following floating-point exceptions are signalling: IEEE_UNDERFLOW_FLAG IEEE_DENORMAL
Note: The following floating-point exceptions are signalling: IEEE_UNDERFLOW_FLAG IEEE_DENORMAL
Note: The following floating-point exceptions are signalling: IEEE_UNDERFLOW_FLAG IEEE_DENORMAL
Note: The following floating-point exceptions are signalling: IEEE_UNDERFLOW_FLAG IEEE_DENORMAL
Note: The following floating-point exceptions are signalling: IEEE_UNDERFLOW_FLAG IEEE_DENORMAL
Note: The following floating-point exceptions are signalling: IEEE_UNDERFLOW_FLAG IEEE_DENORMAL
Note: The following floating-point exceptions are signalling: IEEE_UNDERFLOW_FLAG IEEE_DENORMAL
Note: The following floating-point exceptions are signalling: IEEE_UNDERFLOW_FLAG IEEE_DENORMAL
Note: The following floating-point exceptions are signalling: IEEE_UNDERFLOW_FLAG IEEE_DENORMAL
Note: The following floating-point exceptions are signalling: IEEE_UNDERFLOW_FLAG IEEE_DENORMAL
Note: The following floating-point exceptions are signalling: IEEE_UNDERFLOW_FLAG IEEE_DENORMAL
Note: The following floating-point exceptions are signalling: IEEE_UNDERFLOW_FLAG IEEE_DENORMAL
Note: The following floating-point exceptions are signalling: IEEE_UNDERFLOW_FLAG IEEE_DENORMAL
Note: The following floating-point exceptions are signalling: IEEE_UNDERFLOW_FLAG IEEE_DENORMAL
Note: The following floating-point exceptions are signalling: IEEE_UNDERFLOW_FLAG IEEE_DENORMAL
Note: The following floating-point exceptions are signalling: IEEE_UNDERFLOW_FLAG IEEE_DENORMAL
Note: The following floating-point exceptions are signalling: IEEE_UNDERFLOW_FLAG IEEE_DENORMAL
Note: The following floating-point exceptions are signalling: IEEE_UNDERFLOW_FLAG IEEE_DENORMAL
Note: The following floating-point exceptions are signalling: IEEE_UNDERFLOW_FLAG IEEE_DENORMAL
Note: The following floating-point exceptions are signalling: IEEE_UNDERFLOW_FLAG IEEE_DENORMAL
Note: The following floating-point exceptions are signalling: IEEE_UNDERFLOW_FLAG IEEE_DENORMAL
Note: The following floating-point exceptions are signalling: IEEE_UNDERFLOW_FLAG IEEE_DENORMAL
Note: The following floating-point exceptions are signalling: IEEE_UNDERFLOW_FLAG IEEE_DENORMAL
Note: The following floating-point exceptions are signalling: IEEE_UNDERFLOW_FLAG IEEE_DENORMAL
Note: The following floating-point exceptions are signalling: IEEE_UNDERFLOW_FLAG IEEE_DENORMAL
Note: The following floating-point exceptions are signalling: IEEE_UNDERFLOW_FLAG IEEE_DENORMAL
Note: The following floating-point exceptions are signalling: IEEE_UNDERFLOW_FLAG IEEE_DENORMAL
Note: The following floating-point exceptions are signalling: IEEE_UNDERFLOW_FLAG IEEE_DENORMAL
Note: The following floating-point exceptions are signalling: IEEE_UNDERFLOW_FLAG IEEE_DENORMAL
Note: The following floating-point exceptions are signalling: IEEE_UNDERFLOW_FLAG IEEE_DENORMAL
Note: The following floating-point exceptions are signalling: IEEE_UNDERFLOW_FLAG IEEE_DENORMAL
Note: The following floating-point exceptions are signalling: IEEE_UNDERFLOW_FLAG IEEE_DENORMAL
Note: The following floating-point exceptions are signalling: IEEE_UNDERFLOW_FLAG IEEE_DENORMAL
Note: The following floating-point exceptions are signalling: IEEE_UNDERFLOW_FLAG IEEE_DENORMAL
Note: The following floating-point exceptions are signalling: IEEE_UNDERFLOW_FLAG IEEE_DENORMAL
Note: The following floating-point exceptions are signalling: IEEE_UNDERFLOW_FLAG IEEE_DENORMAL
Note: The following floating-point exceptions are signalling: IEEE_UNDERFLOW_FLAG IEEE_DENORMAL
Note: The following floating-point exceptions are signalling: IEEE_UNDERFLOW_FLAG IEEE_DENORMAL
Note: The following floating-point exceptions are signalling: IEEE_UNDERFLOW_FLAG IEEE_DENORMAL
Note: The following floating-point exceptions are signalling: IEEE_UNDERFLOW_FLAG IEEE_DENORMAL
Note: The following floating-point exceptions are signalling: IEEE_UNDERFLOW_FLAG IEEE_DENORMAL
Note: The following floating-point exceptions are signalling: IEEE_UNDERFLOW_FLAG IEEE_DENORMAL
Note: The following floating-point exceptions are signalling: IEEE_UNDERFLOW_FLAG IEEE_DENORMAL
Note: The following floating-point exceptions are signalling: IEEE_UNDERFLOW_FLAG IEEE_DENORMAL
Note: The following floating-point exceptions are signalling: IEEE_UNDERFLOW_FLAG IEEE_DENORMAL
Note: The following floating-point exceptions are signalling: IEEE_UNDERFLOW_FLAG IEEE_DENORMAL
Note: The following floating-point exceptions are signalling: IEEE_UNDERFLOW_FLAG IEEE_DENORMAL
Note: The following floating-point exceptions are signalling: IEEE_UNDERFLOW_FLAG IEEE_DENORMAL
Note: The following floating-point exceptions are signalling: IEEE_UNDERFLOW_FLAG IEEE_DENORMAL
Note: The following floating-point exceptions are signalling: IEEE_UNDERFLOW_FLAG IEEE_DENORMAL
Note: The following floating-point exceptions are signalling: IEEE_UNDERFLOW_FLAG IEEE_DENORMAL
Note: The following floating-point exceptions are signalling: IEEE_UNDERFLOW_FLAG IEEE_DENORMAL
Note: The following floating-point exceptions are signalling: IEEE_UNDERFLOW_FLAG IEEE_DENORMAL
Note: The following floating-point exceptions are signalling: IEEE_UNDERFLOW_FLAG IEEE_DENORMAL
Note: The following floating-point exceptions are signalling: IEEE_UNDERFLOW_FLAG IEEE_DENORMAL
Note: The following floating-point exceptions are signalling: IEEE_UNDERFLOW_FLAG IEEE_DENORMAL
Note: The following floating-point exceptions are signalling: IEEE_UNDERFLOW_FLAG IEEE_DENORMAL
Note: The following floating-point exceptions are signalling: IEEE_UNDERFLOW_FLAG IEEE_DENORMAL
Note: The following floating-point exceptions are signalling: IEEE_UNDERFLOW_FLAG IEEE_DENORMAL
Note: The following floating-point exceptions are signalling: IEEE_UNDERFLOW_FLAG IEEE_DENORMAL
Note: The following floating-point exceptions are signalling: IEEE_UNDERFLOW_FLAG IEEE_DENORMAL
Note: The following floating-point exceptions are signalling: IEEE_UNDERFLOW_FLAG IEEE_DENORMAL
Note: The following floating-point exceptions are signalling: IEEE_UNDERFLOW_FLAG IEEE_DENORMAL
Note: The following floating-point exceptions are signalling: IEEE_UNDERFLOW_FLAG IEEE_DENORMAL
Note: The following floating-point exceptions are signalling: IEEE_UNDERFLOW_FLAG IEEE_DENORMAL
Note: The following floating-point exceptions are signalling: IEEE_UNDERFLOW_FLAG IEEE_DENORMAL
Note: The following floating-point exceptions are signalling: IEEE_UNDERFLOW_FLAG IEEE_DENORMAL
Note: The following floating-point exceptions are signalling: IEEE_UNDERFLOW_FLAG IEEE_DENORMAL
Note: The following floating-point exceptions are signalling: IEEE_UNDERFLOW_FLAG IEEE_DENORMAL
Note: The following floating-point exceptions are signalling: IEEE_UNDERFLOW_FLAG IEEE_DENORMAL
Note: The following floating-point exceptions are signalling: IEEE_UNDERFLOW_FLAG IEEE_DENORMAL
Note: The following floating-point exceptions are signalling: IEEE_UNDERFLOW_FLAG IEEE_DENORMAL
Note: The following floating-point exceptions are signalling: IEEE_UNDERFLOW_FLAG IEEE_DENORMAL
Note: The following floating-point exceptions are signalling: IEEE_UNDERFLOW_FLAG IEEE_DENORMAL
Note: The following floating-point exceptions are signalling: IEEE_UNDERFLOW_FLAG IEEE_DENORMAL
Note: The following floating-point exceptions are signalling: IEEE_UNDERFLOW_FLAG IEEE_DENORMAL
Note: The following floating-point exceptions are signalling: IEEE_UNDERFLOW_FLAG IEEE_DENORMAL
Note: The following floating-point exceptions are signalling: IEEE_UNDERFLOW_FLAG IEEE_DENORMAL
Note: The following floating-point exceptions are signalling: IEEE_UNDERFLOW_FLAG IEEE_DENORMAL
Note: The following floating-point exceptions are signalling: IEEE_UNDERFLOW_FLAG IEEE_DENORMAL
Note: The following floating-point exceptions are signalling: IEEE_UNDERFLOW_FLAG IEEE_DENORMAL
Note: The following floating-point exceptions are signalling: IEEE_UNDERFLOW_FLAG IEEE_DENORMAL
Note: The following floating-point exceptions are signalling: IEEE_UNDERFLOW_FLAG IEEE_DENORMAL
Note: The following floating-point exceptions are signalling: IEEE_UNDERFLOW_FLAG IEEE_DENORMAL
Note: The following floating-point exceptions are signalling: IEEE_UNDERFLOW_FLAG IEEE_DENORMAL
Note: The following floating-point exceptions are signalling: IEEE_UNDERFLOW_FLAG IEEE_DENORMAL
Note: The following floating-point exceptions are signalling: IEEE_UNDERFLOW_FLAG IEEE_DENORMAL
Note: The following floating-point exceptions are signalling: IEEE_UNDERFLOW_FLAG IEEE_DENORMAL
Note: The following floating-point exceptions are signalling: IEEE_UNDERFLOW_FLAG IEEE_DENORMAL
Note: The following floating-point exceptions are signalling: IEEE_UNDERFLOW_FLAG IEEE_DENORMAL
Note: The following floating-point exceptions are signalling: IEEE_UNDERFLOW_FLAG IEEE_DENORMAL
Note: The following floating-point exceptions are signalling: IEEE_UNDERFLOW_FLAG IEEE_DENORMAL
Note: The following floating-point exceptions are signalling: IEEE_UNDERFLOW_FLAG IEEE_DENORMAL
Note: The following floating-point exceptions are signalling: IEEE_UNDERFLOW_FLAG IEEE_DENORMAL
Note: The following floating-point exceptions are signalling: IEEE_UNDERFLOW_FLAG IEEE_DENORMAL
Note: The following floating-point exceptions are signalling: IEEE_UNDERFLOW_FLAG IEEE_DENORMAL
Note: The following floating-point exceptions are signalling: IEEE_UNDERFLOW_FLAG IEEE_DENORMAL
Note: The following floating-point exceptions are signalling: IEEE_UNDERFLOW_FLAG IEEE_DENORMAL
Note: The following floating-point exceptions are signalling: IEEE_UNDERFLOW_FLAG IEEE_DENORMAL
Note: The following floating-point exceptions are signalling: IEEE_UNDERFLOW_FLAG IEEE_DENORMAL
Note: The following floating-point exceptions are signalling: IEEE_UNDERFLOW_FLAG IEEE_DENORMAL
Note: The following floating-point exceptions are signalling: IEEE_UNDERFLOW_FLAG IEEE_DENORMAL
Note: The following floating-point exceptions are signalling: IEEE_UNDERFLOW_FLAG IEEE_DENORMAL
Note: The following floating-point exceptions are signalling: IEEE_UNDERFLOW_FLAG IEEE_DENORMAL
Note: The following floating-point exceptions are signalling: IEEE_UNDERFLOW_FLAG IEEE_DENORMAL
Note: The following floating-point exceptions are signalling: IEEE_UNDERFLOW_FLAG IEEE_DENORMAL
Note: The following floating-point exceptions are signalling: IEEE_UNDERFLOW_FLAG IEEE_DENORMAL
Note: The following floating-point exceptions are signalling: IEEE_UNDERFLOW_FLAG IEEE_DENORMAL
Note: The following floating-point exceptions are signalling: IEEE_UNDERFLOW_FLAG IEEE_DENORMAL
Note: The following floating-point exceptions are signalling: IEEE_UNDERFLOW_FLAG IEEE_DENORMAL
Note: The following floating-point exceptions are signalling: IEEE_UNDERFLOW_FLAG IEEE_DENORMAL
Note: The following floating-point exceptions are signalling: IEEE_UNDERFLOW_FLAG IEEE_DENORMAL
Note: The following floating-point exceptions are signalling: IEEE_UNDERFLOW_FLAG IEEE_DENORMAL
Note: The following floating-point exceptions are signalling: IEEE_UNDERFLOW_FLAG IEEE_DENORMAL
Note: The following floating-point exceptions are signalling: IEEE_UNDERFLOW_FLAG IEEE_DENORMAL
Note: The following floating-point exceptions are signalling: IEEE_UNDERFLOW_FLAG IEEE_DENORMAL
Note: The following floating-point exceptions are signalling: IEEE_UNDERFLOW_FLAG IEEE_DENORMAL
Note: The following floating-point exceptions are signalling: IEEE_UNDERFLOW_FLAG IEEE_DENORMAL
Note: The following floating-point exceptions are signalling: IEEE_UNDERFLOW_FLAG IEEE_DENORMAL
Note: The following floating-point exceptions are signalling: IEEE_UNDERFLOW_FLAG IEEE_DENORMAL
Note: The following floating-point exceptions are signalling: IEEE_UNDERFLOW_FLAG IEEE_DENORMAL
Note: The following floating-point exceptions are signalling: IEEE_UNDERFLOW_FLAG IEEE_DENORMAL
Note: The following floating-point exceptions are signalling: IEEE_UNDERFLOW_FLAG IEEE_DENORMAL
Note: The following floating-point exceptions are signalling: IEEE_UNDERFLOW_FLAG IEEE_DENORMAL
Note: The following floating-point exceptions are signalling: IEEE_UNDERFLOW_FLAG IEEE_DENORMAL
