Lmod has detected the following error: The following module(s) are unknown:
"epcc-job-env"

Please check the spelling or version number. Also try "module spider ..."
It is also possible your cache file is out-of-date; it may help to try:
  $ module --ignore-cache load "epcc-job-env"

Also make sure that all modulefiles written in TCL start with the string
#%Module




Warning: You have enabled access to software packages installed
by external parties on ARCHER2 or those that are not fully-supported.
The ARCHER2 CSE service does not test these packages. The service desk
will make reasonable efforts to assist with questions on the use of
these packages but some issues may not be able to be resolved by the
service and they may direct you to seek help from external parties.


         512 PROCESSORS WORKING

         
 *******************************************************************************
 *                                                                             *
 *                               CRYSTAL17                                     *
 *                      public : 1.0.2 - March 1st, 2018 STFC/Archer2 build    *
 *                       HTTP://WWW.CRYSTAL.UNITO.IT                           *
 *                                                                             *
 *                              MAIN AUTHORS                                   *
 *                                                                             *
 *  R. DOVESI(1,11), V.R. SAUNDERS(2), C. ROETTI(1,11), R. ORLANDO(1,11),      *
 *  C.M. ZICOVICH-WILSON(1,3), F. PASCALE(4), B. CIVALLERI(1,11),              *
 *  K. DOLL(5), N.M. HARRISON(2,6), I.J. BUSH(7), Ph. D'ARCO(8),               *
 *  M. LLUNELL(9), M. CAUSA'(10), Y. NOEL(8), L. MASCHIO(1,11), A. ERBA(1,11)  *
 *  M. RE'RAT(14), S. CASASSA(1,11)                                            *
 *                                                                             *
 *        CONTRIBUTIONS TO THE CODE HAVE ALSO BEEN GIVEN BY                    *
 *                                                                             *
 *  M. FERRABONE(1,11), M. DE LA PIERRE(1,11), M. FERRERO(1,11),               *
 *  J. BAIMA(1,11), E. ALBANESE(1,11), M.F. PEINTINGER(12), R. BAST(13),       *
 *  B. KIRTMAN(15), V. LACIVITA(1,11), R. DEMICHELIS(1,16)                     *
 *  G. BRANDEBURG(17), S. SALUSTRO(1,11), G. SANSONE(1,11)                     *
 *  M.T. RUGGIERO(18)                                                          *
 *                                                                             *
 * (1) THEORETICAL CHEMISTRY GROUP - UNIVERSITA' DI TORINO - TORINO (ITALY)    *
 * (2) COMPUTATIONAL SCIENCE & ENGINEERING DEPARTMENT - STFC DARESBURY (UK)    *
 * (3) UNIVERSIDAD AUTONOMA DEL ESTADO DE MORELOS - CUERNAVACA (MEXICO)        *
 * (4) UNIVERSITE' DE LORRAINE - NANCY (FRANCE)                                *
 * (5) UNIVERSITAET STUTTGART- STUTTGART (GERMANY)                             *
 * (6) IMPERIAL COLLEGE - LONDON (UK)                                          *
 * (7) OXFORD E-RESEARCH CENTRE - OXFORD (UK)                                  *
 * (8) UPMC - SORBONNE UNIVERSITES - PARIS (FRANCE)                            *
 * (9) UNIVERSIDAD DE BARCELONA - BARCELONA (SPAIN)                            *
 *(10) UNIVERSITA' DI NAPOLI "FEDERICO II" - NAPOLI (ITALY)                    *
 *(11) NIS - NANOSTRUCTURED INTERFACES AND SURFACES - TORINO (ITALY)           *
 *(12) MPI FUER CHEMISCHE ENERGIEKONVERSION - MUELHEIM AN DER RUHR (GERMANY)   *
 *(13) UNIVERSITY OF TROMSO - TROMSO (NORWAY)                                  *
 *(14) UNIVERSITE' DE PAU ET DES PAYS DE L'ADOUR - PAU (FRANCE)                *
 *(15) UNIVERSITY OF CALIFORNIA SANTA BARBARA - SANTA BARBARA (USA)            *
 *(16) CURTIN UNIVERSITY - PERTH (AUSTRALIA)                                   *
 *(17) UNIVERSITY COLLEGE LONDON - LONDON (UK)                                 *
 *(18) CAMBRIDGE UNIVERSITY - CAMBRIDGE (UK)                                   *
 *                                                                             *
 *******************************************************************************
 EEEEEEEEEE STARTING  DATE 08 03 2022 TIME 09:48:21.2
 F2 vol stepp4 freq - PBEh-3c                                                    

 GEOMETRY INPUT FROM EXTERNAL FILE (FORTRAN UNIT 34)
 3D - CRYSTAL 

 *******************************************************************************
 LATTICE PARAMETERS  (ANGSTROMS AND DEGREES) - PRIMITIVE CELL
       A          B          C        ALPHA      BETA     GAMMA        VOLUME
   11.87460    7.37265   17.27267    90.00000  90.00000  90.00000   1512.175583

 NUMBER OF IRREDUCIBLE ATOMS IN THE CELL:   20

 CARTESIAN COORDINATES (ANGSTROM) - IRREDUCIBLE ATOMS AND SYMMETRY RELATED

 AT.IRR.  AT  AT.N.          X                   Y                   Z
     1     1     8   -2.796517422893E+00  1.815942405232E+00 -6.398636647542E+00
     1     2     8   -3.140783745489E+00 -1.815942405232E+00  2.237697311312E+00
     1     3     8    3.140783745489E+00  1.870383494249E+00  6.398636647542E+00
     1     4     8    2.796517422893E+00 -1.870383494249E+00 -2.237697311312E+00
     1     5     8    2.796517422893E+00 -1.815942405232E+00  6.398636647542E+00
     1     6     8    3.140783745489E+00  1.815942405232E+00 -2.237697311312E+00
     1     7     8   -3.140783745489E+00 -1.870383494249E+00 -6.398636647542E+00
     1     8     8   -2.796517422893E+00  1.870383494249E+00  2.237697311312E+00
     9     9     8   -1.281779188984E+00  2.013398306932E+00 -1.193233512200E-02
     9    10     8   -4.655521979399E+00 -2.013398306932E+00 -8.648266293976E+00
     9    11     8    4.655521979399E+00  1.672927592549E+00  1.193233512200E-02
     9    12     8    1.281779188984E+00 -1.672927592549E+00  8.648266293976E+00
     9    13     8    1.281779188984E+00 -2.013398306932E+00  1.193233512200E-02
     9    14     8    4.655521979399E+00  2.013398306932E+00  8.648266293976E+00
     9    15     8   -4.655521979399E+00 -1.672927592549E+00 -1.193233512200E-02
     9    16     8   -1.281779188984E+00  1.672927592549E+00 -8.648266293976E+00
    17    17     7    1.573350223230E-01  1.540841981523E+00 -1.696751643310E+00
    17    18     7    5.779966146059E+00 -1.540841981523E+00  6.939582315544E+00
    17    19     7   -5.779966146059E+00  2.145483917959E+00  1.696751643310E+00
    17    20     7   -1.573350223230E-01 -2.145483917959E+00 -6.939582315544E+00
    17    21     7   -1.573350223230E-01 -1.540841981523E+00  1.696751643310E+00
    17    22     7   -5.779966146059E+00  1.540841981523E+00 -6.939582315544E+00
    17    23     7    5.779966146059E+00 -2.145483917959E+00 -1.696751643310E+00
    17    24     7    1.573350223230E-01  2.145483917959E+00  6.939582315544E+00
    25    25     6   -2.100921537860E+00  1.709137458136E+00 -5.247707183563E+00
    25    26     6   -3.836379630523E+00 -1.709137458136E+00  3.388626775291E+00
    25    27     6    3.836379630523E+00  1.977188441345E+00  5.247707183563E+00
    25    28     6    2.100921537860E+00 -1.977188441345E+00 -3.388626775291E+00
    25    29     6    2.100921537860E+00 -1.709137458136E+00  5.247707183563E+00
    25    30     6    3.836379630523E+00  1.709137458136E+00 -3.388626775291E+00
    25    31     6   -3.836379630523E+00 -1.977188441345E+00 -5.247707183563E+00
    25    32     6   -2.100921537860E+00  1.977188441345E+00  3.388626775291E+00
    33    33     6   -6.734383106810E-01  1.582414298703E+00 -2.833562380435E+00
    33    34     6   -5.263862857701E+00 -1.582414298703E+00  5.802771578419E+00
    33    35     6    5.263862857701E+00  2.103911600778E+00  2.833562380435E+00
    33    36     6    6.734383106810E-01 -2.103911600778E+00 -5.802771578419E+00
    33    37     6    6.734383106810E-01 -1.582414298703E+00  2.833562380435E+00
    33    38     6    5.263862857701E+00  1.582414298703E+00 -5.802771578419E+00
    33    39     6   -5.263862857701E+00 -2.103911600778E+00 -2.833562380435E+00
    33    40     6   -6.734383106810E-01  2.103911600778E+00  5.802771578419E+00
    41    41     6   -1.933069002345E+00  2.175881996651E+00 -2.881778745804E+00
    41    42     6   -4.004232166037E+00 -2.175881996651E+00  5.754555213049E+00
    41    43     6    4.004232166037E+00  1.510443902830E+00  2.881778745804E+00
    41    44     6    1.933069002345E+00 -1.510443902830E+00 -5.754555213049E+00
    41    45     6    1.933069002345E+00 -2.175881996651E+00  2.881778745804E+00
    41    46     6    4.004232166037E+00  2.175881996651E+00 -5.754555213049E+00
    41    47     6   -4.004232166037E+00 -1.510443902830E+00 -2.881778745804E+00
    41    48     6   -1.933069002345E+00  1.510443902830E+00  5.754555213049E+00
    49    49     6   -2.635616272288E+00  2.236759355659E+00 -4.077292313292E+00
    49    50     6   -3.301684896094E+00 -2.236759355659E+00  4.559041645562E+00
    49    51     6    3.301684896094E+00  1.449566543822E+00  4.077292313292E+00
    49    52     6    2.635616272288E+00 -1.449566543822E+00 -4.559041645562E+00
    49    53     6    2.635616272288E+00 -2.236759355659E+00  4.077292313292E+00
    49    54     6    3.301684896094E+00  2.236759355659E+00 -4.559041645562E+00
    49    55     6   -3.301684896094E+00 -1.449566543822E+00 -4.077292313292E+00
    49    56     6   -2.635616272288E+00  1.449566543822E+00  4.559041645562E+00
    57    57     6    1.022097016033E+00  1.611125593830E+00  5.373836060070E-01
    57    58     6    4.915204152349E+00 -1.611125593830E+00 -8.098950352847E+00
    57    59     6   -4.915204152349E+00  2.075200305652E+00 -5.373836060070E-01
    57    60     6   -1.022097016033E+00 -2.075200305652E+00  8.098950352847E+00
    57    61     6   -1.022097016033E+00 -1.611125593830E+00 -5.373836060070E-01
    57    62     6   -4.915204152349E+00  1.611125593830E+00  8.098950352847E+00
    57    63     6    4.915204152349E+00 -2.075200305652E+00  5.373836060070E-01
    57    64     6    1.022097016033E+00  2.075200305652E+00 -8.098950352847E+00
    65    65     6   -8.628080762920E-01  1.075885490025E+00 -5.188596059710E+00
    65    66     6   -5.074493092090E+00 -1.075885490025E+00  3.447737899144E+00
    65    67     6    5.074493092090E+00  2.610440409456E+00  5.188596059710E+00
    65    68     6    8.628080762920E-01 -2.610440409456E+00 -3.447737899144E+00
    65    69     6    8.628080762920E-01 -1.075885490025E+00  5.188596059710E+00
    65    70     6    5.074493092090E+00  1.075885490025E+00 -3.447737899144E+00
    65    71     6   -5.074493092090E+00 -2.610440409456E+00 -5.188596059710E+00
    65    72     6   -8.628080762920E-01  2.610440409456E+00  3.447737899144E+00
    73    73     6   -1.486730589670E-01  1.734162100850E+00 -4.032928345300E-01
    73    74     6   -5.788628109415E+00 -1.734162100850E+00  8.233041124324E+00
    73    75     6    5.788628109415E+00  1.952163798631E+00  4.032928345300E-01
    73    76     6    1.486730589670E-01 -1.952163798631E+00 -8.233041124324E+00
    73    77     6    1.486730589670E-01 -1.734162100850E+00  4.032928345300E-01
    73    78     6    5.788628109415E+00  1.734162100850E+00 -8.233041124324E+00
    73    79     6   -5.788628109415E+00 -1.952163798631E+00 -4.032928345300E-01
    73    80     6   -1.486730589670E-01  1.952163798631E+00  8.233041124324E+00
    81    81     6   -1.605453013280E-01  1.018807943510E+00 -3.999574844551E+00
    81    82     6   -5.776755867055E+00 -1.018807943510E+00  4.636759114303E+00
    81    83     6    5.776755867055E+00  2.667517955971E+00  3.999574844551E+00
    81    84     6    1.605453013280E-01 -2.667517955971E+00 -4.636759114303E+00
    81    85     6    1.605453013280E-01 -1.018807943510E+00  3.999574844551E+00
    81    86     6    5.776755867055E+00  1.018807943510E+00 -4.636759114303E+00
    81    87     6   -5.776755867055E+00 -2.667517955971E+00 -3.999574844551E+00
    81    88     6   -1.605453013280E-01  2.667517955971E+00  4.636759114303E+00
    89    89     1   -2.207119332638E+00  1.689434829041E+00 -7.172931892828E+00
    89    90     1   -3.730181835744E+00 -1.689434829041E+00  1.463402066026E+00
    89    91     1    3.730181835744E+00  1.996891070441E+00  7.172931892828E+00
    89    92     1    2.207119332638E+00 -1.996891070441E+00 -1.463402066026E+00
    89    93     1    2.207119332638E+00 -1.689434829041E+00  7.172931892828E+00
    89    94     1    3.730181835744E+00  1.689434829041E+00 -1.463402066026E+00
    89    95     1   -3.730181835744E+00 -1.996891070441E+00 -7.172931892828E+00
    89    96     1   -2.207119332638E+00  1.996891070441E+00  1.463402066026E+00
    97    97     1    1.140950368076E+00  1.398611579614E+00 -1.902360682237E+00
    97    98     1    4.796350800306E+00 -1.398611579614E+00  6.733973276617E+00
    97    99     1   -4.796350800306E+00  2.287714319868E+00  1.902360682237E+00
    97   100     1   -1.140950368076E+00 -2.287714319868E+00 -6.733973276617E+00
    97   101     1   -1.140950368076E+00 -1.398611579614E+00  1.902360682237E+00
    97   102     1   -4.796350800306E+00  1.398611579614E+00 -6.733973276617E+00
    97   103     1    4.796350800306E+00 -2.287714319868E+00 -1.902360682237E+00
    97   104     1    1.140950368076E+00  2.287714319868E+00  6.733973276617E+00
   105   105     1   -2.372221840162E+00  2.618543329102E+00 -2.002935614110E+00
   105   106     1   -3.565079328220E+00 -2.618543329102E+00  6.633398344744E+00
   105   107     1    3.565079328220E+00  1.067782570380E+00  2.002935614110E+00
   105   108     1    2.372221840162E+00 -1.067782570380E+00 -6.633398344744E+00
   105   109     1    2.372221840162E+00 -2.618543329102E+00  2.002935614110E+00
   105   110     1    3.565079328220E+00  2.618543329102E+00 -6.633398344744E+00
   105   111     1   -3.565079328220E+00 -1.067782570380E+00 -2.002935614110E+00
   105   112     1   -2.372221840162E+00  1.067782570380E+00  6.633398344744E+00
   113   113     1   -3.601698425780E+00  2.725280418539E+00 -4.098293572550E+00
   113   114     1   -2.335602742602E+00 -2.725280418539E+00  4.538040386304E+00
   113   115     1    2.335602742602E+00  9.610454809420E-01  4.098293572550E+00
   113   116     1    3.601698425780E+00 -9.610454809420E-01 -4.538040386304E+00
   113   117     1    3.601698425780E+00 -2.725280418539E+00  4.098293572550E+00
   113   118     1    2.335602742602E+00  2.725280418539E+00 -4.538040386304E+00
   113   119     1   -2.335602742602E+00 -9.610454809420E-01 -4.098293572550E+00
   113   120     1   -3.601698425780E+00  9.610454809420E-01  4.538040386304E+00
   121   121     1    1.493473834103E+00  2.587900082374E+00  6.619628279630E-01
   121   122     1    4.443827334279E+00 -2.587900082374E+00 -7.974371130891E+00
   121   123     1   -4.443827334279E+00  1.098425817108E+00 -6.619628279630E-01
   121   124     1   -1.493473834103E+00 -1.098425817108E+00  7.974371130891E+00
   121   125     1   -1.493473834103E+00 -2.587900082374E+00 -6.619628279630E-01
   121   126     1   -4.443827334279E+00  2.587900082374E+00  7.974371130891E+00
   121   127     1    4.443827334279E+00 -1.098425817108E+00  6.619628279630E-01
   121   128     1    1.493473834103E+00  1.098425817108E+00 -7.974371130891E+00
   129   129     1    1.781613022065E+00  9.208094644120E-01  1.759769142710E-01
   129   130     1    4.155688146318E+00 -9.208094644120E-01 -8.460357044583E+00
   129   131     1   -4.155688146318E+00  2.765516435069E+00 -1.759769142710E-01
   129   132     1   -1.781613022065E+00 -2.765516435069E+00  8.460357044583E+00
   129   133     1   -1.781613022065E+00 -9.208094644120E-01 -1.759769142710E-01
   129   134     1   -4.155688146318E+00  9.208094644120E-01  8.460357044583E+00
   129   135     1    4.155688146318E+00 -2.765516435069E+00  1.759769142710E-01
   129   136     1    1.781613022065E+00  2.765516435069E+00 -8.460357044583E+00
   137   137     1    6.855405773090E-01  1.274777453575E+00  1.514988490344E+00
   137   138     1    5.251760591073E+00 -1.274777453575E+00 -7.121345468510E+00
   137   139     1   -5.251760591073E+00  2.411548445907E+00 -1.514988490344E+00
   137   140     1   -6.855405773090E-01 -2.411548445907E+00  7.121345468510E+00
   137   141     1   -6.855405773090E-01 -1.274777453575E+00 -1.514988490344E+00
   137   142     1   -5.251760591073E+00  1.274777453575E+00  7.121345468510E+00
   137   143     1    5.251760591073E+00 -2.411548445907E+00  1.514988490344E+00
   137   144     1    6.855405773090E-01  2.411548445907E+00 -7.121345468510E+00
   145   145     1   -4.439130196420E-01  6.074984287070E-01 -6.069003691956E+00
   145   146     1   -5.493388148741E+00 -6.074984287070E-01  2.567330266898E+00
   145   147     1    5.493388148741E+00  3.078827470775E+00  6.069003691956E+00
   145   148     1    4.439130196420E-01 -3.078827470775E+00 -2.567330266898E+00
   145   149     1    4.439130196420E-01 -6.074984287070E-01  6.069003691956E+00
   145   150     1    5.493388148741E+00  6.074984287070E-01 -2.567330266898E+00
   145   151     1   -5.493388148741E+00 -3.078827470775E+00 -6.069003691956E+00
   145   152     1   -4.439130196420E-01  3.078827470775E+00  2.567330266898E+00
   153   153     1    8.028087019330E-01  5.221773428270E-01 -3.989696093581E+00
   153   154     1    5.134492466450E+00 -5.221773428270E-01  4.646637865273E+00
   153   155     1   -5.134492466450E+00  3.164148556654E+00  3.989696093581E+00
   153   156     1   -8.028087019330E-01 -3.164148556654E+00 -4.646637865273E+00
   153   157     1   -8.028087019330E-01 -5.221773428270E-01  3.989696093581E+00
   153   158     1   -5.134492466450E+00  5.221773428270E-01 -4.646637865273E+00
   153   159     1    5.134492466450E+00 -3.164148556654E+00 -3.989696093581E+00
   153   160     1    8.028087019330E-01  3.164148556654E+00  4.646637865273E+00

 SPACE  GROUP  N.                     :   61
 NUMBER OF SYMMETRY OPERATORS         :    8
 *******************************************************************************
 LATTICE PARAMETERS (ANGSTROMS AND DEGREES) - BOHR = 0.5291772083 ANGSTROM
 PRIMITIVE CELL - CENTRING CODE 1/0 VOLUME=  1512.175583 - DENSITY  1.327 g/cm^3
         A              B              C           ALPHA      BETA       GAMMA 
    11.87460234     7.37265180    17.27266792    90.000000  90.000000  90.000000
 *******************************************************************************
 ATOMS IN THE ASYMMETRIC UNIT   20 - ATOMS IN THE UNIT CELL:  160
     ATOM                 X/A                 Y/B                 Z/C    
 *******************************************************************************
      1 T   8 O    -2.355040904592E-01  2.463079031466E-01 -3.704486578466E-01
      2 F   8 O    -2.644959095393E-01 -2.463079031466E-01  1.295513421536E-01
      3 F   8 O     2.644959095393E-01  2.536920968535E-01  3.704486578466E-01
      4 F   8 O     2.355040904592E-01 -2.536920968535E-01 -1.295513421536E-01
      5 F   8 O     2.355040904592E-01 -2.463079031466E-01  3.704486578466E-01
      6 F   8 O     2.644959095393E-01  2.463079031466E-01 -1.295513421536E-01
      7 F   8 O    -2.644959095393E-01 -2.536920968535E-01 -3.704486578466E-01
      8 F   8 O    -2.355040904592E-01  2.536920968535E-01  1.295513421536E-01
      9 T   8 O    -1.079429148555E-01  2.730901121922E-01 -6.908217757010E-04
     10 F   8 O    -3.920570851431E-01 -2.730901121922E-01  4.993091782241E-01
     11 F   8 O     3.920570851431E-01  2.269098878079E-01  6.908217757010E-04
     12 F   8 O     1.079429148555E-01 -2.269098878079E-01 -4.993091782241E-01
     13 F   8 O     1.079429148555E-01 -2.730901121922E-01  6.908217757010E-04
     14 F   8 O     3.920570851431E-01  2.730901121922E-01 -4.993091782241E-01
     15 F   8 O    -3.920570851431E-01 -2.269098878079E-01 -6.908217757010E-04
     16 F   8 O    -1.079429148555E-01  2.269098878079E-01  4.993091782241E-01
     17 T   7 N     1.324970873639E-02  2.089942701133E-01 -9.823332743932E-02
     18 F   7 N     4.867502912621E-01 -2.089942701133E-01  4.017666725609E-01
     19 F   7 N    -4.867502912621E-01  2.910057298870E-01  9.823332743932E-02
     20 F   7 N    -1.324970873639E-02 -2.910057298870E-01 -4.017666725609E-01
     21 F   7 N    -1.324970873639E-02 -2.089942701133E-01  9.823332743932E-02
     22 F   7 N    -4.867502912621E-01  2.089942701133E-01 -4.017666725609E-01
     23 F   7 N     4.867502912621E-01 -2.910057298870E-01 -9.823332743932E-02
     24 F   7 N     1.324970873639E-02  2.910057298870E-01  4.017666725609E-01
     25 T   6 C    -1.769256332357E-01  2.318212638738E-01 -3.038156704319E-01
     26 F   6 C    -3.230743667629E-01 -2.318212638738E-01  1.961843295684E-01
     27 F   6 C     3.230743667629E-01  2.681787361264E-01  3.038156704319E-01
     28 F   6 C     1.769256332357E-01 -2.681787361264E-01 -1.961843295684E-01
     29 F   6 C     1.769256332357E-01 -2.318212638738E-01  3.038156704319E-01
     30 F   6 C     3.230743667629E-01  2.318212638738E-01 -1.961843295684E-01
     31 F   6 C    -3.230743667629E-01 -2.681787361264E-01 -3.038156704319E-01
     32 F   6 C    -1.769256332357E-01  2.681787361264E-01  1.961843295684E-01
     33 T   6 C    -5.671249373918E-02  2.146329898458E-01 -1.640489120694E-01
     34 F   6 C    -4.432875062593E-01 -2.146329898458E-01  3.359510879308E-01
     35 F   6 C     4.432875062593E-01  2.853670101543E-01  1.640489120694E-01
     36 F   6 C     5.671249373918E-02 -2.853670101543E-01 -3.359510879308E-01
     37 F   6 C     5.671249373918E-02 -2.146329898458E-01  1.640489120694E-01
     38 F   6 C     4.432875062593E-01  2.146329898458E-01 -3.359510879308E-01
     39 F   6 C    -4.432875062593E-01 -2.853670101543E-01 -1.640489120694E-01
     40 F   6 C    -5.671249373918E-02  2.853670101543E-01  3.359510879308E-01
     41 T   6 C    -1.627902095175E-01  2.951288160602E-01 -1.668403954464E-01
     42 F   6 C    -3.372097904810E-01 -2.951288160602E-01  3.331596045537E-01
     43 F   6 C     3.372097904810E-01  2.048711839400E-01  1.668403954464E-01
     44 F   6 C     1.627902095175E-01 -2.048711839400E-01 -3.331596045537E-01
     45 F   6 C     1.627902095175E-01 -2.951288160602E-01  1.668403954464E-01
     46 F   6 C     3.372097904810E-01  2.951288160602E-01 -3.331596045537E-01
     47 F   6 C    -3.372097904810E-01 -2.048711839400E-01 -1.668403954464E-01
     48 F   6 C    -1.627902095175E-01  2.048711839400E-01  3.331596045537E-01
     49 T   6 C    -2.219540661265E-01  3.033860023031E-01 -2.360545766710E-01
     50 F   6 C    -2.780459338720E-01 -3.033860023031E-01  2.639454233292E-01
     51 F   6 C     2.780459338720E-01  1.966139976971E-01  2.360545766710E-01
     52 F   6 C     2.219540661265E-01 -1.966139976971E-01 -2.639454233292E-01
     53 F   6 C     2.219540661265E-01 -3.033860023031E-01  2.360545766710E-01
     54 F   6 C     2.780459338720E-01  3.033860023031E-01 -2.639454233292E-01
     55 F   6 C    -2.780459338720E-01 -1.966139976971E-01 -2.360545766710E-01
     56 F   6 C    -2.219540661265E-01  1.966139976971E-01  2.639454233292E-01
     57 T   6 C     8.607421006979E-02  2.185272867569E-01  3.111178936384E-02
     58 F   6 C     4.139257899287E-01 -2.185272867569E-01 -4.688882106364E-01
     59 F   6 C    -4.139257899287E-01  2.814727132434E-01 -3.111178936384E-02
     60 F   6 C    -8.607421006979E-02 -2.814727132434E-01  4.688882106364E-01
     61 F   6 C    -8.607421006979E-02 -2.185272867569E-01 -3.111178936384E-02
     62 F   6 C    -4.139257899287E-01  2.185272867569E-01  4.688882106364E-01
     63 F   6 C     4.139257899287E-01 -2.814727132434E-01  3.111178936384E-02
     64 F   6 C     8.607421006979E-02  2.814727132434E-01 -4.688882106364E-01
     65 T   6 C    -7.265995540904E-02  1.459292421998E-01 -3.003934357120E-01
     66 F   6 C    -4.273400445894E-01 -1.459292421998E-01  1.996065642883E-01
     67 F   6 C     4.273400445894E-01  3.540707578004E-01  3.003934357120E-01
     68 F   6 C     7.265995540904E-02 -3.540707578004E-01 -1.996065642883E-01
     69 F   6 C     7.265995540904E-02 -1.459292421998E-01  3.003934357120E-01
     70 F   6 C     4.273400445894E-01  1.459292421998E-01 -1.996065642883E-01
     71 F   6 C    -4.273400445894E-01 -3.540707578004E-01 -3.003934357120E-01
     72 F   6 C    -7.265995540904E-02  3.540707578004E-01  1.996065642883E-01
     73 T   6 C    -1.252025581575E-02  2.352155164977E-01 -2.334861275928E-02
     74 F   6 C    -4.874797441827E-01 -2.352155164977E-01  4.766513872410E-01
     75 F   6 C     4.874797441827E-01  2.647844835024E-01  2.334861275928E-02
     76 F   6 C     1.252025581575E-02 -2.647844835024E-01 -4.766513872410E-01
     77 F   6 C     1.252025581575E-02 -2.352155164977E-01  2.334861275928E-02
     78 F   6 C     4.874797441827E-01  2.352155164977E-01 -4.766513872410E-01
     79 F   6 C    -4.874797441827E-01 -2.647844835024E-01 -2.334861275928E-02
     80 F   6 C    -1.252025581575E-02  2.647844835024E-01  4.766513872410E-01
     81 T   6 C    -1.352005707429E-02  1.381874488707E-01 -2.315551288086E-01
     82 F   6 C    -4.864799429243E-01 -1.381874488707E-01  2.684448711916E-01
     83 F   6 C     4.864799429243E-01  3.618125511295E-01  2.315551288086E-01
     84 F   6 C     1.352005707429E-02 -3.618125511295E-01 -2.684448711916E-01
     85 F   6 C     1.352005707429E-02 -1.381874488707E-01  2.315551288086E-01
     86 F   6 C     4.864799429243E-01  1.381874488707E-01 -2.684448711916E-01
     87 F   6 C    -4.864799429243E-01 -3.618125511295E-01 -2.315551288086E-01
     88 F   6 C    -1.352005707429E-02  3.618125511295E-01  2.684448711916E-01
     89 T   1 H    -1.858689049147E-01  2.291488700550E-01 -4.152764313542E-01
     90 F   1 H    -3.141310950838E-01 -2.291488700550E-01  8.472356864607E-02
     91 F   1 H     3.141310950838E-01  2.708511299452E-01  4.152764313542E-01
     92 F   1 H     1.858689049147E-01 -2.708511299452E-01 -8.472356864607E-02
     93 F   1 H     1.858689049147E-01 -2.291488700550E-01  4.152764313542E-01
     94 F   1 H     3.141310950838E-01  2.291488700550E-01 -8.472356864607E-02
     95 F   1 H    -3.141310950838E-01 -2.708511299452E-01 -4.152764313542E-01
     96 F   1 H    -1.858689049147E-01  2.708511299452E-01  8.472356864607E-02
     97 T   1 H     9.608324857668E-02  1.897026494336E-01 -1.101370495456E-01
     98 F   1 H     4.039167514218E-01 -1.897026494336E-01  3.898629504546E-01
     99 F   1 H    -4.039167514218E-01  3.102973505667E-01  1.101370495456E-01
    100 F   1 H    -9.608324857668E-02 -3.102973505667E-01 -3.898629504546E-01
    101 F   1 H    -9.608324857668E-02 -1.897026494336E-01  1.101370495456E-01
    102 F   1 H    -4.039167514218E-01  1.897026494336E-01 -3.898629504546E-01
    103 F   1 H     4.039167514218E-01 -3.102973505667E-01 -1.101370495456E-01
    104 F   1 H     9.608324857668E-02  3.102973505667E-01  3.898629504546E-01
    105 T   1 H    -1.997727395730E-01  3.551698087073E-01 -1.159598287684E-01
    106 F   1 H    -3.002272604255E-01 -3.551698087073E-01  3.840401712318E-01
    107 F   1 H     3.002272604255E-01  1.448301912930E-01  1.159598287684E-01
    108 F   1 H     1.997727395730E-01 -1.448301912930E-01 -3.840401712318E-01
    109 F   1 H     1.997727395730E-01 -3.551698087073E-01  1.159598287684E-01
    110 F   1 H     3.002272604255E-01  3.551698087073E-01 -3.840401712318E-01
    111 F   1 H    -3.002272604255E-01 -1.448301912930E-01 -1.159598287684E-01
    112 F   1 H    -1.997727395730E-01  1.448301912930E-01  3.840401712318E-01
    113 T   1 H    -3.033110771734E-01  3.696472440111E-01 -2.372704432273E-01
    114 F   1 H    -1.966889228251E-01 -3.696472440111E-01  2.627295567730E-01
    115 F   1 H     1.966889228251E-01  1.303527559890E-01  2.372704432273E-01
    116 F   1 H     3.033110771734E-01 -1.303527559890E-01 -2.627295567730E-01
    117 F   1 H     3.033110771734E-01 -3.696472440111E-01  2.372704432273E-01
    118 F   1 H     1.966889228251E-01  3.696472440111E-01 -2.627295567730E-01
    119 F   1 H    -1.966889228251E-01 -1.303527559890E-01 -2.372704432273E-01
    120 F   1 H    -3.033110771734E-01  1.303527559890E-01  2.627295567730E-01
    121 T   1 H     1.257704293368E-01  3.510134688226E-01  3.832429541962E-02
    122 F   1 H     3.742295706617E-01 -3.510134688226E-01 -4.616757045806E-01
    123 F   1 H    -3.742295706617E-01  1.489865311777E-01 -3.832429541962E-02
    124 F   1 H    -1.257704293368E-01 -1.489865311777E-01  4.616757045806E-01
    125 F   1 H    -1.257704293368E-01 -3.510134688226E-01 -3.832429541962E-02
    126 F   1 H    -3.742295706617E-01  3.510134688226E-01  4.616757045806E-01
    127 F   1 H     3.742295706617E-01 -1.489865311777E-01  3.832429541962E-02
    128 F   1 H     1.257704293368E-01  1.489865311777E-01 -4.616757045806E-01
    129 T   1 H     1.500355945852E-01  1.248952872753E-01  1.018817215207E-02
    130 F   1 H     3.499644054133E-01 -1.248952872753E-01 -4.898118278482E-01
    131 F   1 H    -3.499644054133E-01  3.751047127248E-01 -1.018817215207E-02
    132 F   1 H    -1.500355945852E-01 -3.751047127248E-01  4.898118278482E-01
    133 F   1 H    -1.500355945852E-01 -1.248952872753E-01 -1.018817215207E-02
    134 F   1 H    -3.499644054133E-01  1.248952872753E-01  4.898118278482E-01
    135 F   1 H     3.499644054133E-01 -3.751047127248E-01  1.018817215207E-02
    136 F   1 H     1.500355945852E-01  3.751047127248E-01 -4.898118278482E-01
    137 T   1 H     5.773166611100E-02  1.729062335149E-01  8.771016136954E-02
    138 F   1 H     4.422683338875E-01 -1.729062335149E-01 -4.122898386307E-01
    139 F   1 H    -4.422683338875E-01  3.270937664854E-01 -8.771016136954E-02
    140 F   1 H    -5.773166611100E-02 -3.270937664854E-01  4.122898386307E-01
    141 F   1 H    -5.773166611100E-02 -1.729062335149E-01 -8.771016136954E-02
    142 F   1 H    -4.422683338875E-01  1.729062335149E-01  4.122898386307E-01
    143 F   1 H     4.422683338875E-01 -3.270937664854E-01  8.771016136954E-02
    144 F   1 H     5.773166611100E-02  3.270937664854E-01 -4.122898386307E-01
    145 T   1 H    -3.738340089641E-02  8.239890412195E-02 -3.513645790490E-01
    146 F   1 H    -4.626165991022E-01 -8.239890412195E-02  1.486354209512E-01
    147 F   1 H     4.626165991022E-01  4.176010958783E-01  3.513645790490E-01
    148 F   1 H     3.738340089641E-02 -4.176010958783E-01 -1.486354209512E-01
    149 F   1 H     3.738340089641E-02 -8.239890412195E-02  3.513645790490E-01
    150 F   1 H     4.626165991022E-01  8.239890412195E-02 -1.486354209512E-01
    151 F   1 H    -4.626165991022E-01 -4.176010958783E-01 -3.513645790490E-01
    152 F   1 H    -3.738340089641E-02  4.176010958783E-01  1.486354209512E-01
    153 T   1 H     6.760720731212E-02  7.082625859269E-02 -2.309831991555E-01
    154 F   1 H     4.323927926865E-01 -7.082625859269E-02  2.690168008447E-01
    155 F   1 H    -4.323927926865E-01  4.291737414074E-01  2.309831991555E-01
    156 F   1 H    -6.760720731212E-02 -4.291737414074E-01 -2.690168008447E-01
    157 F   1 H    -6.760720731212E-02 -7.082625859269E-02  2.309831991555E-01
    158 F   1 H    -4.323927926865E-01  7.082625859269E-02 -2.690168008447E-01
    159 F   1 H     4.323927926865E-01 -4.291737414074E-01 -2.309831991555E-01
    160 F   1 H     6.760720731212E-02  4.291737414074E-01  2.690168008447E-01

 T = ATOM BELONGING TO THE ASYMMETRIC UNIT
 *******************************************************************************
 * GEOMETRY EDITING - INPUT COORDINATES ARE GIVEN IN ANGSTROM         
 *******************************************************************************

 GEOMETRY NOW FULLY CONSISTENT WITH THE GROUP

 FRQFRQFRQFRQFRQFRQFRQFRQFRQFRQFRQFRQFRQFRQFRQFRQFRQFRQFRQFRQFRQFRQFRQFRQFRQFRQ

                       FREQUENCY CALCULATION

 INFORMATION **** INPFREQ ****  PRINTING OF EIGENVECTORS
 INFORMATION **** INPFREQ **** NEW DEFAULT - IMPOSING ECKART CONDITIONS TO THE HESSIAN

 GCALCO - MAX INDICES DIRECT LATTICE VECTOR    14    23     9
 NO.OF VECTORS CREATED 6999 STARS 1060 RMAX   257.38741 BOHR

 GEOMETRY FOR WAVE FUNCTION - DIMENSIONALITY OF THE SYSTEM    3
 (NON PERIODIC DIRECTION: LATTICE PARAMETER FORMALLY SET TO 500)
 *******************************************************************************
 LATTICE PARAMETERS (ANGSTROMS AND DEGREES) - BOHR = 0.5291772083 ANGSTROM
 PRIMITIVE CELL - CENTRING CODE 1/0 VOLUME=  1512.175583 - DENSITY  1.327 g/cm^3
         A              B              C           ALPHA      BETA       GAMMA 
    11.87460234     7.37265180    17.27266792    90.000000  90.000000  90.000000
 *******************************************************************************
 ATOMS IN THE ASYMMETRIC UNIT   20 - ATOMS IN THE UNIT CELL:  160
     ATOM                 X/A                 Y/B                 Z/C    
 *******************************************************************************
      1 T   8 O    -2.355040904592E-01  2.463079031466E-01 -3.704486578466E-01
      2 F   8 O    -2.644959095425E-01 -2.463079031466E-01  1.295513421534E-01
      3 F   8 O     2.644959095391E-01  2.536920968534E-01  3.704486578466E-01
      4 F   8 O     2.355040904592E-01 -2.536920968534E-01 -1.295513421534E-01
      5 F   8 O     2.355040904592E-01 -2.463079031466E-01  3.704486578466E-01
      6 F   8 O     2.644959095391E-01  2.463079031466E-01 -1.295513421534E-01
      7 F   8 O    -2.644959095425E-01 -2.536920968534E-01 -3.704486578466E-01
      8 F   8 O    -2.355040904592E-01  2.536920968534E-01  1.295513421534E-01
      9 T   8 O    -1.079429148555E-01  2.730901121922E-01 -6.908217757010E-04
     10 F   8 O    -3.920570851462E-01 -2.730901121922E-01  4.993091782243E-01
     11 F   8 O     3.920570851428E-01  2.269098878078E-01  6.908217757010E-04
     12 F   8 O     1.079429148555E-01 -2.269098878078E-01 -4.993091782243E-01
     13 F   8 O     1.079429148555E-01 -2.730901121922E-01  6.908217757010E-04
     14 F   8 O     3.920570851428E-01  2.730901121922E-01 -4.993091782243E-01
     15 F   8 O    -3.920570851462E-01 -2.269098878078E-01 -6.908217757010E-04
     16 F   8 O    -1.079429148555E-01  2.269098878078E-01  4.993091782243E-01
     17 T   7 N     1.324970873639E-02  2.089942701133E-01 -9.823332743932E-02
     18 F   7 N     4.867502912619E-01 -2.089942701133E-01  4.017666725607E-01
     19 F   7 N    -4.867502912653E-01  2.910057298867E-01  9.823332743932E-02
     20 F   7 N    -1.324970873639E-02 -2.910057298867E-01 -4.017666725607E-01
     21 F   7 N    -1.324970873639E-02 -2.089942701133E-01  9.823332743932E-02
     22 F   7 N    -4.867502912653E-01  2.089942701133E-01 -4.017666725607E-01
     23 F   7 N     4.867502912619E-01 -2.910057298867E-01 -9.823332743932E-02
     24 F   7 N     1.324970873639E-02  2.910057298867E-01  4.017666725607E-01
     25 T   6 C    -1.769256332357E-01  2.318212638738E-01 -3.038156704319E-01
     26 F   6 C    -3.230743667660E-01 -2.318212638738E-01  1.961843295681E-01
     27 F   6 C     3.230743667627E-01  2.681787361262E-01  3.038156704319E-01
     28 F   6 C     1.769256332357E-01 -2.681787361262E-01 -1.961843295681E-01
     29 F   6 C     1.769256332357E-01 -2.318212638738E-01  3.038156704319E-01
     30 F   6 C     3.230743667627E-01  2.318212638738E-01 -1.961843295681E-01
     31 F   6 C    -3.230743667660E-01 -2.681787361262E-01 -3.038156704319E-01
     32 F   6 C    -1.769256332357E-01  2.681787361262E-01  1.961843295681E-01
     33 T   6 C    -5.671249373918E-02  2.146329898458E-01 -1.640489120694E-01
     34 F   6 C    -4.432875062625E-01 -2.146329898458E-01  3.359510879306E-01
     35 F   6 C     4.432875062591E-01  2.853670101542E-01  1.640489120694E-01
     36 F   6 C     5.671249373918E-02 -2.853670101542E-01 -3.359510879306E-01
     37 F   6 C     5.671249373918E-02 -2.146329898458E-01  1.640489120694E-01
     38 F   6 C     4.432875062591E-01  2.146329898458E-01 -3.359510879306E-01
     39 F   6 C    -4.432875062625E-01 -2.853670101542E-01 -1.640489120694E-01
     40 F   6 C    -5.671249373918E-02  2.853670101542E-01  3.359510879306E-01
     41 T   6 C    -1.627902095175E-01  2.951288160602E-01 -1.668403954464E-01
     42 F   6 C    -3.372097904842E-01 -2.951288160602E-01  3.331596045536E-01
     43 F   6 C     3.372097904808E-01  2.048711839398E-01  1.668403954464E-01
     44 F   6 C     1.627902095175E-01 -2.048711839398E-01 -3.331596045536E-01
     45 F   6 C     1.627902095175E-01 -2.951288160602E-01  1.668403954464E-01
     46 F   6 C     3.372097904808E-01  2.951288160602E-01 -3.331596045536E-01
     47 F   6 C    -3.372097904842E-01 -2.048711839398E-01 -1.668403954464E-01
     48 F   6 C    -1.627902095175E-01  2.048711839398E-01  3.331596045536E-01
     49 T   6 C    -2.219540661265E-01  3.033860023031E-01 -2.360545766710E-01
     50 F   6 C    -2.780459338752E-01 -3.033860023031E-01  2.639454233290E-01
     51 F   6 C     2.780459338718E-01  1.966139976969E-01  2.360545766710E-01
     52 F   6 C     2.219540661265E-01 -1.966139976969E-01 -2.639454233290E-01
     53 F   6 C     2.219540661265E-01 -3.033860023031E-01  2.360545766710E-01
     54 F   6 C     2.780459338718E-01  3.033860023031E-01 -2.639454233290E-01
     55 F   6 C    -2.780459338752E-01 -1.966139976969E-01 -2.360545766710E-01
     56 F   6 C    -2.219540661265E-01  1.966139976969E-01  2.639454233290E-01
     57 T   6 C     8.607421006979E-02  2.185272867569E-01  3.111178936384E-02
     58 F   6 C     4.139257899285E-01 -2.185272867569E-01 -4.688882106362E-01
     59 F   6 C    -4.139257899319E-01  2.814727132431E-01 -3.111178936384E-02
     60 F   6 C    -8.607421006979E-02 -2.814727132431E-01  4.688882106362E-01
     61 F   6 C    -8.607421006979E-02 -2.185272867569E-01 -3.111178936384E-02
     62 F   6 C    -4.139257899319E-01  2.185272867569E-01  4.688882106362E-01
     63 F   6 C     4.139257899285E-01 -2.814727132431E-01  3.111178936384E-02
     64 F   6 C     8.607421006979E-02  2.814727132431E-01 -4.688882106362E-01
     65 T   6 C    -7.265995540904E-02  1.459292421998E-01 -3.003934357120E-01
     66 F   6 C    -4.273400445926E-01 -1.459292421998E-01  1.996065642880E-01
     67 F   6 C     4.273400445893E-01  3.540707578002E-01  3.003934357120E-01
     68 F   6 C     7.265995540904E-02 -3.540707578002E-01 -1.996065642880E-01
     69 F   6 C     7.265995540904E-02 -1.459292421998E-01  3.003934357120E-01
     70 F   6 C     4.273400445893E-01  1.459292421998E-01 -1.996065642880E-01
     71 F   6 C    -4.273400445926E-01 -3.540707578002E-01 -3.003934357120E-01
     72 F   6 C    -7.265995540904E-02  3.540707578002E-01  1.996065642880E-01
     73 T   6 C    -1.252025581575E-02  2.352155164977E-01 -2.334861275928E-02
     74 F   6 C    -4.874797441859E-01 -2.352155164977E-01  4.766513872407E-01
     75 F   6 C     4.874797441826E-01  2.647844835023E-01  2.334861275928E-02
     76 F   6 C     1.252025581575E-02 -2.647844835023E-01 -4.766513872407E-01
     77 F   6 C     1.252025581575E-02 -2.352155164977E-01  2.334861275928E-02
     78 F   6 C     4.874797441826E-01  2.352155164977E-01 -4.766513872407E-01
     79 F   6 C    -4.874797441859E-01 -2.647844835023E-01 -2.334861275928E-02
     80 F   6 C    -1.252025581575E-02  2.647844835023E-01  4.766513872407E-01
     81 T   6 C    -1.352005707429E-02  1.381874488707E-01 -2.315551288086E-01
     82 F   6 C    -4.864799429274E-01 -1.381874488707E-01  2.684448711914E-01
     83 F   6 C     4.864799429240E-01  3.618125511293E-01  2.315551288086E-01
     84 F   6 C     1.352005707429E-02 -3.618125511293E-01 -2.684448711914E-01
     85 F   6 C     1.352005707429E-02 -1.381874488707E-01  2.315551288086E-01
     86 F   6 C     4.864799429240E-01  1.381874488707E-01 -2.684448711914E-01
     87 F   6 C    -4.864799429274E-01 -3.618125511293E-01 -2.315551288086E-01
     88 F   6 C    -1.352005707429E-02  3.618125511293E-01  2.684448711914E-01
     89 T   1 H    -1.858689049147E-01  2.291488700550E-01 -4.152764313542E-01
     90 F   1 H    -3.141310950870E-01 -2.291488700550E-01  8.472356864584E-02
     91 F   1 H     3.141310950837E-01  2.708511299450E-01  4.152764313542E-01
     92 F   1 H     1.858689049147E-01 -2.708511299450E-01 -8.472356864584E-02
     93 F   1 H     1.858689049147E-01 -2.291488700550E-01  4.152764313542E-01
     94 F   1 H     3.141310950837E-01  2.291488700550E-01 -8.472356864584E-02
     95 F   1 H    -3.141310950870E-01 -2.708511299450E-01 -4.152764313542E-01
     96 F   1 H    -1.858689049147E-01  2.708511299450E-01  8.472356864584E-02
     97 T   1 H     9.608324857668E-02  1.897026494336E-01 -1.101370495456E-01
     98 F   1 H     4.039167514216E-01 -1.897026494336E-01  3.898629504544E-01
     99 F   1 H    -4.039167514250E-01  3.102973505664E-01  1.101370495456E-01
    100 F   1 H    -9.608324857668E-02 -3.102973505664E-01 -3.898629504544E-01
    101 F   1 H    -9.608324857668E-02 -1.897026494336E-01  1.101370495456E-01
    102 F   1 H    -4.039167514250E-01  1.897026494336E-01 -3.898629504544E-01
    103 F   1 H     4.039167514216E-01 -3.102973505664E-01 -1.101370495456E-01
    104 F   1 H     9.608324857668E-02  3.102973505664E-01  3.898629504544E-01
    105 T   1 H    -1.997727395730E-01  3.551698087073E-01 -1.159598287684E-01
    106 F   1 H    -3.002272604287E-01 -3.551698087073E-01  3.840401712316E-01
    107 F   1 H     3.002272604254E-01  1.448301912927E-01  1.159598287684E-01
    108 F   1 H     1.997727395730E-01 -1.448301912927E-01 -3.840401712316E-01
    109 F   1 H     1.997727395730E-01 -3.551698087073E-01  1.159598287684E-01
    110 F   1 H     3.002272604254E-01  3.551698087073E-01 -3.840401712316E-01
    111 F   1 H    -3.002272604287E-01 -1.448301912927E-01 -1.159598287684E-01
    112 F   1 H    -1.997727395730E-01  1.448301912927E-01  3.840401712316E-01
    113 T   1 H    -3.033110771734E-01  3.696472440111E-01 -2.372704432273E-01
    114 F   1 H    -1.966889228283E-01 -3.696472440111E-01  2.627295567727E-01
    115 F   1 H     1.966889228250E-01  1.303527559889E-01  2.372704432273E-01
    116 F   1 H     3.033110771734E-01 -1.303527559889E-01 -2.627295567727E-01
    117 F   1 H     3.033110771734E-01 -3.696472440111E-01  2.372704432273E-01
    118 F   1 H     1.966889228250E-01  3.696472440111E-01 -2.627295567727E-01
    119 F   1 H    -1.966889228283E-01 -1.303527559889E-01 -2.372704432273E-01
    120 F   1 H    -3.033110771734E-01  1.303527559889E-01  2.627295567727E-01
    121 T   1 H     1.257704293368E-01  3.510134688226E-01  3.832429541962E-02
    122 F   1 H     3.742295706615E-01 -3.510134688226E-01 -4.616757045804E-01
    123 F   1 H    -3.742295706649E-01  1.489865311774E-01 -3.832429541962E-02
    124 F   1 H    -1.257704293368E-01 -1.489865311774E-01  4.616757045804E-01
    125 F   1 H    -1.257704293368E-01 -3.510134688226E-01 -3.832429541962E-02
    126 F   1 H    -3.742295706649E-01  3.510134688226E-01  4.616757045804E-01
    127 F   1 H     3.742295706615E-01 -1.489865311774E-01  3.832429541962E-02
    128 F   1 H     1.257704293368E-01  1.489865311774E-01 -4.616757045804E-01
    129 T   1 H     1.500355945852E-01  1.248952872753E-01  1.018817215207E-02
    130 F   1 H     3.499644054131E-01 -1.248952872753E-01 -4.898118278479E-01
    131 F   1 H    -3.499644054165E-01  3.751047127247E-01 -1.018817215207E-02
    132 F   1 H    -1.500355945852E-01 -3.751047127247E-01  4.898118278479E-01
    133 F   1 H    -1.500355945852E-01 -1.248952872753E-01 -1.018817215207E-02
    134 F   1 H    -3.499644054165E-01  1.248952872753E-01  4.898118278479E-01
    135 F   1 H     3.499644054131E-01 -3.751047127247E-01  1.018817215207E-02
    136 F   1 H     1.500355945852E-01  3.751047127247E-01 -4.898118278479E-01
    137 T   1 H     5.773166611100E-02  1.729062335149E-01  8.771016136954E-02
    138 F   1 H     4.422683338873E-01 -1.729062335149E-01 -4.122898386305E-01
    139 F   1 H    -4.422683338907E-01  3.270937664851E-01 -8.771016136954E-02
    140 F   1 H    -5.773166611100E-02 -3.270937664851E-01  4.122898386305E-01
    141 F   1 H    -5.773166611100E-02 -1.729062335149E-01 -8.771016136954E-02
    142 F   1 H    -4.422683338907E-01  1.729062335149E-01  4.122898386305E-01
    143 F   1 H     4.422683338873E-01 -3.270937664851E-01  8.771016136954E-02
    144 F   1 H     5.773166611100E-02  3.270937664851E-01 -4.122898386305E-01
    145 T   1 H    -3.738340089641E-02  8.239890412195E-02 -3.513645790490E-01
    146 F   1 H    -4.626165991053E-01 -8.239890412195E-02  1.486354209510E-01
    147 F   1 H     4.626165991019E-01  4.176010958781E-01  3.513645790490E-01
    148 F   1 H     3.738340089641E-02 -4.176010958781E-01 -1.486354209510E-01
    149 F   1 H     3.738340089641E-02 -8.239890412195E-02  3.513645790490E-01
    150 F   1 H     4.626165991019E-01  8.239890412195E-02 -1.486354209510E-01
    151 F   1 H    -4.626165991053E-01 -4.176010958781E-01 -3.513645790490E-01
    152 F   1 H    -3.738340089641E-02  4.176010958781E-01  1.486354209510E-01
    153 T   1 H     6.760720731212E-02  7.082625859269E-02 -2.309831991555E-01
    154 F   1 H     4.323927926862E-01 -7.082625859269E-02  2.690168008445E-01
    155 F   1 H    -4.323927926896E-01  4.291737414073E-01  2.309831991555E-01
    156 F   1 H    -6.760720731212E-02 -4.291737414073E-01 -2.690168008445E-01
    157 F   1 H    -6.760720731212E-02 -7.082625859269E-02  2.309831991555E-01
    158 F   1 H    -4.323927926896E-01  7.082625859269E-02 -2.690168008445E-01
    159 F   1 H     4.323927926862E-01 -4.291737414073E-01 -2.309831991555E-01
    160 F   1 H     6.760720731212E-02  4.291737414073E-01  2.690168008445E-01

 T = ATOM BELONGING TO THE ASYMMETRIC UNIT

 ****    8 SYMMOPS - TRANSLATORS IN FRACTIONAL UNITS
 **** MATRICES AND TRANSLATORS IN THE CRYSTALLOGRAPHIC REFERENCE FRAME
   V INV                    ROTATION MATRICES                   TRANSLATORS
   1   1  1.00  0.00  0.00  0.00  1.00  0.00  0.00  0.00  1.00  0.00  0.00  0.00
   2   2 -1.00  0.00  0.00  0.00 -1.00  0.00  0.00  0.00  1.00  0.50  0.00  0.50
   3   3  1.00  0.00  0.00  0.00 -1.00  0.00  0.00  0.00 -1.00  0.50  0.50  0.00
   4   4 -1.00  0.00  0.00  0.00  1.00  0.00  0.00  0.00 -1.00  0.00  0.50  0.50
   5   5 -1.00  0.00  0.00  0.00 -1.00  0.00  0.00  0.00 -1.00  0.00  0.00  0.00
   6   6  1.00  0.00  0.00  0.00  1.00  0.00  0.00  0.00 -1.00  0.50  0.00  0.50
   7   7 -1.00  0.00  0.00  0.00  1.00  0.00  0.00  0.00  1.00  0.50  0.50  0.00
   8   8  1.00  0.00  0.00  0.00 -1.00  0.00  0.00  0.00  1.00  0.00  0.50  0.50

 DIRECT LATTICE VECTORS CARTESIAN COMPONENTS (ANGSTROM)
          X                    Y                    Z
   0.118746023368E+02   0.000000000000E+00   0.000000000000E+00
   0.000000000000E+00   0.737265179896E+01   0.000000000000E+00
   0.000000000000E+00   0.000000000000E+00   0.172726679177E+02


 CARTESIAN COORDINATES - PRIMITIVE CELL
 *******************************************************************************
 *      ATOM          X(ANGSTROM)         Y(ANGSTROM)         Z(ANGSTROM)
 *******************************************************************************
    1     8 O    -2.796517422893E+00  1.815942405232E+00 -6.398636647542E+00
    2     8 O    -3.140783745527E+00 -1.815942405232E+00  2.237697311308E+00
    3     8 O     3.140783745487E+00  1.870383494248E+00  6.398636647542E+00
    4     8 O     2.796517422893E+00 -1.870383494248E+00 -2.237697311308E+00
    5     8 O     2.796517422893E+00 -1.815942405232E+00  6.398636647542E+00
    6     8 O     3.140783745487E+00  1.815942405232E+00 -2.237697311308E+00
    7     8 O    -3.140783745527E+00 -1.870383494248E+00 -6.398636647542E+00
    8     8 O    -2.796517422893E+00  1.870383494248E+00  2.237697311308E+00
    9     8 O    -1.281779188984E+00  2.013398306932E+00 -1.193233512200E-02
   10     8 O    -4.655521979436E+00 -2.013398306932E+00 -8.648266293972E+00
   11     8 O     4.655521979396E+00  1.672927592548E+00  1.193233512200E-02
   12     8 O     1.281779188984E+00 -1.672927592548E+00  8.648266293972E+00
   13     8 O     1.281779188984E+00 -2.013398306932E+00  1.193233512200E-02
   14     8 O     4.655521979396E+00  2.013398306932E+00  8.648266293972E+00
   15     8 O    -4.655521979436E+00 -1.672927592548E+00 -1.193233512200E-02
   16     8 O    -1.281779188984E+00  1.672927592548E+00 -8.648266293972E+00
   17     7 N     1.573350223230E-01  1.540841981523E+00 -1.696751643310E+00
   18     7 N     5.779966146057E+00 -1.540841981523E+00  6.939582315540E+00
   19     7 N    -5.779966146097E+00  2.145483917957E+00  1.696751643310E+00
   20     7 N    -1.573350223230E-01 -2.145483917957E+00 -6.939582315540E+00
   21     7 N    -1.573350223230E-01 -1.540841981523E+00  1.696751643310E+00
   22     7 N    -5.779966146097E+00  1.540841981523E+00 -6.939582315540E+00
   23     7 N     5.779966146057E+00 -2.145483917957E+00 -1.696751643310E+00
   24     7 N     1.573350223230E-01  2.145483917957E+00  6.939582315540E+00
   25     6 C    -2.100921537860E+00  1.709137458136E+00 -5.247707183563E+00
   26     6 C    -3.836379630560E+00 -1.709137458136E+00  3.388626775287E+00
   27     6 C     3.836379630520E+00  1.977188441344E+00  5.247707183563E+00
   28     6 C     2.100921537860E+00 -1.977188441344E+00 -3.388626775287E+00
   29     6 C     2.100921537860E+00 -1.709137458136E+00  5.247707183563E+00
   30     6 C     3.836379630520E+00  1.709137458136E+00 -3.388626775287E+00
   31     6 C    -3.836379630560E+00 -1.977188441344E+00 -5.247707183563E+00
   32     6 C    -2.100921537860E+00  1.977188441344E+00  3.388626775287E+00
   33     6 C    -6.734383106810E-01  1.582414298703E+00 -2.833562380435E+00
   34     6 C    -5.263862857739E+00 -1.582414298703E+00  5.802771578415E+00
   35     6 C     5.263862857699E+00  2.103911600777E+00  2.833562380435E+00
   36     6 C     6.734383106810E-01 -2.103911600777E+00 -5.802771578415E+00
   37     6 C     6.734383106810E-01 -1.582414298703E+00  2.833562380435E+00
   38     6 C     5.263862857699E+00  1.582414298703E+00 -5.802771578415E+00
   39     6 C    -5.263862857739E+00 -2.103911600777E+00 -2.833562380435E+00
   40     6 C    -6.734383106810E-01  2.103911600777E+00  5.802771578415E+00
   41     6 C    -1.933069002345E+00  2.175881996651E+00 -2.881778745804E+00
   42     6 C    -4.004232166075E+00 -2.175881996651E+00  5.754555213046E+00
   43     6 C     4.004232166035E+00  1.510443902829E+00  2.881778745804E+00
   44     6 C     1.933069002345E+00 -1.510443902829E+00 -5.754555213046E+00
   45     6 C     1.933069002345E+00 -2.175881996651E+00  2.881778745804E+00
   46     6 C     4.004232166035E+00  2.175881996651E+00 -5.754555213046E+00
   47     6 C    -4.004232166075E+00 -1.510443902829E+00 -2.881778745804E+00
   48     6 C    -1.933069002345E+00  1.510443902829E+00  5.754555213046E+00
   49     6 C    -2.635616272288E+00  2.236759355659E+00 -4.077292313292E+00
   50     6 C    -3.301684896132E+00 -2.236759355659E+00  4.559041645558E+00
   51     6 C     3.301684896092E+00  1.449566543821E+00  4.077292313292E+00
   52     6 C     2.635616272288E+00 -1.449566543821E+00 -4.559041645558E+00
   53     6 C     2.635616272288E+00 -2.236759355659E+00  4.077292313292E+00
   54     6 C     3.301684896092E+00  2.236759355659E+00 -4.559041645558E+00
   55     6 C    -3.301684896132E+00 -1.449566543821E+00 -4.077292313292E+00
   56     6 C    -2.635616272288E+00  1.449566543821E+00  4.559041645558E+00
   57     6 C     1.022097016033E+00  1.611125593830E+00  5.373836060070E-01
   58     6 C     4.915204152347E+00 -1.611125593830E+00 -8.098950352843E+00
   59     6 C    -4.915204152387E+00  2.075200305650E+00 -5.373836060070E-01
   60     6 C    -1.022097016033E+00 -2.075200305650E+00  8.098950352843E+00
   61     6 C    -1.022097016033E+00 -1.611125593830E+00 -5.373836060070E-01
   62     6 C    -4.915204152387E+00  1.611125593830E+00  8.098950352843E+00
   63     6 C     4.915204152347E+00 -2.075200305650E+00  5.373836060070E-01
   64     6 C     1.022097016033E+00  2.075200305650E+00 -8.098950352843E+00
   65     6 C    -8.628080762920E-01  1.075885490025E+00 -5.188596059710E+00
   66     6 C    -5.074493092128E+00 -1.075885490025E+00  3.447737899140E+00
   67     6 C     5.074493092088E+00  2.610440409455E+00  5.188596059710E+00
   68     6 C     8.628080762920E-01 -2.610440409455E+00 -3.447737899140E+00
   69     6 C     8.628080762920E-01 -1.075885490025E+00  5.188596059710E+00
   70     6 C     5.074493092088E+00  1.075885490025E+00 -3.447737899140E+00
   71     6 C    -5.074493092128E+00 -2.610440409455E+00 -5.188596059710E+00
   72     6 C    -8.628080762920E-01  2.610440409455E+00  3.447737899140E+00
   73     6 C    -1.486730589670E-01  1.734162100850E+00 -4.032928345300E-01
   74     6 C    -5.788628109453E+00 -1.734162100850E+00  8.233041124320E+00
   75     6 C     5.788628109413E+00  1.952163798630E+00  4.032928345300E-01
   76     6 C     1.486730589670E-01 -1.952163798630E+00 -8.233041124320E+00
   77     6 C     1.486730589670E-01 -1.734162100850E+00  4.032928345300E-01
   78     6 C     5.788628109413E+00  1.734162100850E+00 -8.233041124320E+00
   79     6 C    -5.788628109453E+00 -1.952163798630E+00 -4.032928345300E-01
   80     6 C    -1.486730589670E-01  1.952163798630E+00  8.233041124320E+00
   81     6 C    -1.605453013280E-01  1.018807943510E+00 -3.999574844551E+00
   82     6 C    -5.776755867092E+00 -1.018807943510E+00  4.636759114299E+00
   83     6 C     5.776755867052E+00  2.667517955970E+00  3.999574844551E+00
   84     6 C     1.605453013280E-01 -2.667517955970E+00 -4.636759114299E+00
   85     6 C     1.605453013280E-01 -1.018807943510E+00  3.999574844551E+00
   86     6 C     5.776755867052E+00  1.018807943510E+00 -4.636759114299E+00
   87     6 C    -5.776755867092E+00 -2.667517955970E+00 -3.999574844551E+00
   88     6 C    -1.605453013280E-01  2.667517955970E+00  4.636759114299E+00
   89     1 H    -2.207119332638E+00  1.689434829041E+00 -7.172931892828E+00
   90     1 H    -3.730181835782E+00 -1.689434829041E+00  1.463402066022E+00
   91     1 H     3.730181835742E+00  1.996891070439E+00  7.172931892828E+00
   92     1 H     2.207119332638E+00 -1.996891070439E+00 -1.463402066022E+00
   93     1 H     2.207119332638E+00 -1.689434829041E+00  7.172931892828E+00
   94     1 H     3.730181835742E+00  1.689434829041E+00 -1.463402066022E+00
   95     1 H    -3.730181835782E+00 -1.996891070439E+00 -7.172931892828E+00
   96     1 H    -2.207119332638E+00  1.996891070439E+00  1.463402066022E+00
   97     1 H     1.140950368076E+00  1.398611579614E+00 -1.902360682237E+00
   98     1 H     4.796350800304E+00 -1.398611579614E+00  6.733973276613E+00
   99     1 H    -4.796350800344E+00  2.287714319866E+00  1.902360682237E+00
  100     1 H    -1.140950368076E+00 -2.287714319866E+00 -6.733973276613E+00
  101     1 H    -1.140950368076E+00 -1.398611579614E+00  1.902360682237E+00
  102     1 H    -4.796350800344E+00  1.398611579614E+00 -6.733973276613E+00
  103     1 H     4.796350800304E+00 -2.287714319866E+00 -1.902360682237E+00
  104     1 H     1.140950368076E+00  2.287714319866E+00  6.733973276613E+00
  105     1 H    -2.372221840162E+00  2.618543329102E+00 -2.002935614110E+00
  106     1 H    -3.565079328258E+00 -2.618543329102E+00  6.633398344740E+00
  107     1 H     3.565079328218E+00  1.067782570378E+00  2.002935614110E+00
  108     1 H     2.372221840162E+00 -1.067782570378E+00 -6.633398344740E+00
  109     1 H     2.372221840162E+00 -2.618543329102E+00  2.002935614110E+00
  110     1 H     3.565079328218E+00  2.618543329102E+00 -6.633398344740E+00
  111     1 H    -3.565079328258E+00 -1.067782570378E+00 -2.002935614110E+00
  112     1 H    -2.372221840162E+00  1.067782570378E+00  6.633398344740E+00
  113     1 H    -3.601698425780E+00  2.725280418539E+00 -4.098293572550E+00
  114     1 H    -2.335602742640E+00 -2.725280418539E+00  4.538040386300E+00
  115     1 H     2.335602742600E+00  9.610454809410E-01  4.098293572550E+00
  116     1 H     3.601698425780E+00 -9.610454809410E-01 -4.538040386300E+00
  117     1 H     3.601698425780E+00 -2.725280418539E+00  4.098293572550E+00
  118     1 H     2.335602742600E+00  2.725280418539E+00 -4.538040386300E+00
  119     1 H    -2.335602742640E+00 -9.610454809410E-01 -4.098293572550E+00
  120     1 H    -3.601698425780E+00  9.610454809410E-01  4.538040386300E+00
  121     1 H     1.493473834103E+00  2.587900082374E+00  6.619628279630E-01
  122     1 H     4.443827334277E+00 -2.587900082374E+00 -7.974371130887E+00
  123     1 H    -4.443827334317E+00  1.098425817106E+00 -6.619628279630E-01
  124     1 H    -1.493473834103E+00 -1.098425817106E+00  7.974371130887E+00
  125     1 H    -1.493473834103E+00 -2.587900082374E+00 -6.619628279630E-01
  126     1 H    -4.443827334317E+00  2.587900082374E+00  7.974371130887E+00
  127     1 H     4.443827334277E+00 -1.098425817106E+00  6.619628279630E-01
  128     1 H     1.493473834103E+00  1.098425817106E+00 -7.974371130887E+00
  129     1 H     1.781613022065E+00  9.208094644120E-01  1.759769142710E-01
  130     1 H     4.155688146315E+00 -9.208094644120E-01 -8.460357044579E+00
  131     1 H    -4.155688146355E+00  2.765516435068E+00 -1.759769142710E-01
  132     1 H    -1.781613022065E+00 -2.765516435068E+00  8.460357044579E+00
  133     1 H    -1.781613022065E+00 -9.208094644120E-01 -1.759769142710E-01
  134     1 H    -4.155688146355E+00  9.208094644120E-01  8.460357044579E+00
  135     1 H     4.155688146315E+00 -2.765516435068E+00  1.759769142710E-01
  136     1 H     1.781613022065E+00  2.765516435068E+00 -8.460357044579E+00
  137     1 H     6.855405773090E-01  1.274777453575E+00  1.514988490344E+00
  138     1 H     5.251760591071E+00 -1.274777453575E+00 -7.121345468506E+00
  139     1 H    -5.251760591111E+00  2.411548445905E+00 -1.514988490344E+00
  140     1 H    -6.855405773090E-01 -2.411548445905E+00  7.121345468506E+00
  141     1 H    -6.855405773090E-01 -1.274777453575E+00 -1.514988490344E+00
  142     1 H    -5.251760591111E+00  1.274777453575E+00  7.121345468506E+00
  143     1 H     5.251760591071E+00 -2.411548445905E+00  1.514988490344E+00
  144     1 H     6.855405773090E-01  2.411548445905E+00 -7.121345468506E+00
  145     1 H    -4.439130196420E-01  6.074984287070E-01 -6.069003691956E+00
  146     1 H    -5.493388148778E+00 -6.074984287070E-01  2.567330266894E+00
  147     1 H     5.493388148738E+00  3.078827470773E+00  6.069003691956E+00
  148     1 H     4.439130196420E-01 -3.078827470773E+00 -2.567330266894E+00
  149     1 H     4.439130196420E-01 -6.074984287070E-01  6.069003691956E+00
  150     1 H     5.493388148738E+00  6.074984287070E-01 -2.567330266894E+00
  151     1 H    -5.493388148778E+00 -3.078827470773E+00 -6.069003691956E+00
  152     1 H    -4.439130196420E-01  3.078827470773E+00  2.567330266894E+00
  153     1 H     8.028087019330E-01  5.221773428270E-01 -3.989696093581E+00
  154     1 H     5.134492466447E+00 -5.221773428270E-01  4.646637865269E+00
  155     1 H    -5.134492466487E+00  3.164148556653E+00  3.989696093581E+00
  156     1 H    -8.028087019330E-01 -3.164148556653E+00 -4.646637865269E+00
  157     1 H    -8.028087019330E-01 -5.221773428270E-01  3.989696093581E+00
  158     1 H    -5.134492466487E+00  5.221773428270E-01 -4.646637865269E+00
  159     1 H     5.134492466447E+00 -3.164148556653E+00 -3.989696093581E+00
  160     1 H     8.028087019330E-01  3.164148556653E+00  4.646637865269E+00

 *******************************************************************************
 STARTING BASIS SET HANDLING 
 *******************************************************************************

 Loading internal basis set: DEF2-MSVP           

 Please cite in your publication:
 Fully Optimized Contracted Gaussian Basis Sets for Atoms Li to Kr. A. Schfer, H. Horn and R. Ahlrichs; J. Chem. Phys. 97, 2571 (1992).                                                                                                                         
 S. Grimme, J. G. Brandenburg, C. Bannwarth, and A. Hansen, J. Chem. Phys., 143, 054107 (2015).                                                                                                                                                                  

 *******************************************************************************
 LOCAL ATOMIC FUNCTIONS BASIS SET
 *******************************************************************************
   ATOM   X(AU)   Y(AU)   Z(AU)  N. TYPE  EXPONENT  S COEF   P COEF   D/F/G COEF
 *******************************************************************************
   1 O   -5.285   3.432 -12.092
                                  1 S  
                                         6.773E+03 1.727E-03 0.000E+00 0.000E+00
                                         1.017E+03 1.325E-02 0.000E+00 0.000E+00
                                         2.313E+02 6.603E-02 0.000E+00 0.000E+00
                                         6.501E+01 2.353E-01 0.000E+00 0.000E+00
                                         2.050E+01 5.498E-01 0.000E+00 0.000E+00
                                  2 S  
                                         6.716E+00 1.000E+00 0.000E+00 0.000E+00
                                  3 S  
                                         1.147E+00 1.000E+00 0.000E+00 0.000E+00
                                  4 S  
                                         3.342E-01 1.000E+00 0.000E+00 0.000E+00
                           5-     7 P  
                                         1.769E+01 0.000E+00 4.359E-02 0.000E+00
                                         3.854E+00 0.000E+00 2.318E-01 0.000E+00
                                         1.047E+00 0.000E+00 5.146E-01 0.000E+00
                           8-    10 P  
                                         2.759E-01 0.000E+00 1.000E+00 0.000E+00
                          11-    15 D  
                                         8.000E-01 0.000E+00 0.000E+00 1.000E+00
   2 O   -5.935  -3.432   4.229
   3 O    5.935   3.535  12.092
   4 O    5.285  -3.535  -4.229
   5 O    5.285  -3.432  12.092
   6 O    5.935   3.432  -4.229
   7 O   -5.935  -3.535 -12.092
   8 O   -5.285   3.535   4.229
   9 O   -2.422   3.805  -0.023
  10 O   -8.798  -3.805 -16.343
  11 O    8.798   3.161   0.023
  12 O    2.422  -3.161  16.343
  13 O    2.422  -3.805   0.023
  14 O    8.798   3.805  16.343
  15 O   -8.798  -3.161  -0.023
  16 O   -2.422   3.161 -16.343
  17 N    0.297   2.912  -3.206
                                241 S  
                                         5.072E+03 1.707E-03 0.000E+00 0.000E+00
                                         7.614E+02 1.309E-02 0.000E+00 0.000E+00
                                         1.732E+02 6.510E-02 0.000E+00 0.000E+00
                                         4.867E+01 2.305E-01 0.000E+00 0.000E+00
                                         1.533E+01 5.330E-01 0.000E+00 0.000E+00
                                242 S  
                                         5.019E+00 1.000E+00 0.000E+00 0.000E+00
                                243 S  
                                         8.355E-01 1.000E+00 0.000E+00 0.000E+00
                                244 S  
                                         2.463E-01 1.000E+00 0.000E+00 0.000E+00
                         245-   247 P  
                                         1.355E+01 0.000E+00 4.063E-02 0.000E+00
                                         2.918E+00 0.000E+00 2.209E-01 0.000E+00
                                         7.983E-01 0.000E+00 5.186E-01 0.000E+00
                         248-   250 P  
                                         2.190E-01 0.000E+00 1.000E+00 0.000E+00
                         251-   255 D  
                                         8.000E-01 0.000E+00 0.000E+00 1.000E+00
  18 N   10.923  -2.912  13.114
  19 N  -10.923   4.054   3.206
  20 N   -0.297  -4.054 -13.114
  21 N   -0.297  -2.912   3.206
  22 N  -10.923   2.912 -13.114
  23 N   10.923  -4.054  -3.206
  24 N    0.297   4.054  13.114
  25 C   -3.970   3.230  -9.917
                                361 S  
                                         3.624E+03 1.634E-03 0.000E+00 0.000E+00
                                         5.440E+02 1.252E-02 0.000E+00 0.000E+00
                                         1.237E+02 6.211E-02 0.000E+00 0.000E+00
                                         3.476E+01 2.182E-01 0.000E+00 0.000E+00
                                         1.093E+01 4.980E-01 0.000E+00 0.000E+00
                                362 S  
                                         3.574E+00 1.000E+00 0.000E+00 0.000E+00
                                363 S  
                                         5.748E-01 1.000E+00 0.000E+00 0.000E+00
                                364 S  
                                         1.730E-01 1.000E+00 0.000E+00 0.000E+00
                         365-   367 P  
                                         9.443E+00 0.000E+00 3.790E-02 0.000E+00
                                         2.002E+00 0.000E+00 2.082E-01 0.000E+00
                                         5.463E-01 0.000E+00 5.047E-01 0.000E+00
                         368-   370 P  
                                         1.520E-01 0.000E+00 1.000E+00 0.000E+00
                         371-   375 D  
                                         8.000E-01 0.000E+00 0.000E+00 1.000E+00
  26 C   -7.250  -3.230   6.404
  27 C    7.250   3.736   9.917
  28 C    3.970  -3.736  -6.404
  29 C    3.970  -3.230   9.917
  30 C    7.250   3.230  -6.404
  31 C   -7.250  -3.736  -9.917
  32 C   -3.970   3.736   6.404
  33 C   -1.273   2.990  -5.355
  34 C   -9.947  -2.990  10.966
  35 C    9.947   3.976   5.355
  36 C    1.273  -3.976 -10.966
  37 C    1.273  -2.990   5.355
  38 C    9.947   2.990 -10.966
  39 C   -9.947  -3.976  -5.355
  40 C   -1.273   3.976  10.966
  41 C   -3.653   4.112  -5.446
  42 C   -7.567  -4.112  10.875
  43 C    7.567   2.854   5.446
  44 C    3.653  -2.854 -10.875
  45 C    3.653  -4.112   5.446
  46 C    7.567   4.112 -10.875
  47 C   -7.567  -2.854  -5.446
  48 C   -3.653   2.854  10.875
  49 C   -4.981   4.227  -7.705
  50 C   -6.239  -4.227   8.615
  51 C    6.239   2.739   7.705
  52 C    4.981  -2.739  -8.615
  53 C    4.981  -4.227   7.705
  54 C    6.239   4.227  -8.615
  55 C   -6.239  -2.739  -7.705
  56 C   -4.981   2.739   8.615
  57 C    1.931   3.045   1.016
  58 C    9.288  -3.045 -15.305
  59 C   -9.288   3.922  -1.016
  60 C   -1.931  -3.922  15.305
  61 C   -1.931  -3.045  -1.016
  62 C   -9.288   3.045  15.305
  63 C    9.288  -3.922   1.016
  64 C    1.931   3.922 -15.305
  65 C   -1.630   2.033  -9.805
  66 C   -9.589  -2.033   6.515
  67 C    9.589   4.933   9.805
  68 C    1.630  -4.933  -6.515
  69 C    1.630  -2.033   9.805
  70 C    9.589   2.033  -6.515
  71 C   -9.589  -4.933  -9.805
  72 C   -1.630   4.933   6.515
  73 C   -0.281   3.277  -0.762
  74 C  -10.939  -3.277  15.558
  75 C   10.939   3.689   0.762
  76 C    0.281  -3.689 -15.558
  77 C    0.281  -3.277   0.762
  78 C   10.939   3.277 -15.558
  79 C  -10.939  -3.689  -0.762
  80 C   -0.281   3.689  15.558
  81 C   -0.303   1.925  -7.558
  82 C  -10.916  -1.925   8.762
  83 C   10.916   5.041   7.558
  84 C    0.303  -5.041  -8.762
  85 C    0.303  -1.925   7.558
  86 C   10.916   1.925  -8.762
  87 C  -10.916  -5.041  -7.558
  88 C   -0.303   5.041   8.762
  89 H   -4.171   3.193 -13.555
                               1321 S  
                                         1.874E+01 1.968E-02 0.000E+00 0.000E+00
                                         2.826E+00 1.380E-01 0.000E+00 0.000E+00
                                         6.401E-01 4.783E-01 0.000E+00 0.000E+00
                               1322 S  
                                         1.756E-01 1.000E+00 0.000E+00 0.000E+00
  90 H   -7.049  -3.193   2.765
  91 H    7.049   3.774  13.555
  92 H    4.171  -3.774  -2.765
  93 H    4.171  -3.193  13.555
  94 H    7.049   3.193  -2.765
  95 H   -7.049  -3.774 -13.555
  96 H   -4.171   3.774   2.765
  97 H    2.156   2.643  -3.595
  98 H    9.064  -2.643  12.725
  99 H   -9.064   4.323   3.595
 100 H   -2.156  -4.323 -12.725
 101 H   -2.156  -2.643   3.595
 102 H   -9.064   2.643 -12.725
 103 H    9.064  -4.323  -3.595
 104 H    2.156   4.323  12.725
 105 H   -4.483   4.948  -3.785
 106 H   -6.737  -4.948  12.535
 107 H    6.737   2.018   3.785
 108 H    4.483  -2.018 -12.535
 109 H    4.483  -4.948   3.785
 110 H    6.737   4.948 -12.535
 111 H   -6.737  -2.018  -3.785
 112 H   -4.483   2.018  12.535
 113 H   -6.806   5.150  -7.745
 114 H   -4.414  -5.150   8.576
 115 H    4.414   1.816   7.745
 116 H    6.806  -1.816  -8.576
 117 H    6.806  -5.150   7.745
 118 H    4.414   5.150  -8.576
 119 H   -4.414  -1.816  -7.745
 120 H   -6.806   1.816   8.576
 121 H    2.822   4.890   1.251
 122 H    8.398  -4.890 -15.069
 123 H   -8.398   2.076  -1.251
 124 H   -2.822  -2.076  15.069
 125 H   -2.822  -4.890  -1.251
 126 H   -8.398   4.890  15.069
 127 H    8.398  -2.076   1.251
 128 H    2.822   2.076 -15.069
 129 H    3.367   1.740   0.333
 130 H    7.853  -1.740 -15.988
 131 H   -7.853   5.226  -0.333
 132 H   -3.367  -5.226  15.988
 133 H   -3.367  -1.740  -0.333
 134 H   -7.853   1.740  15.988
 135 H    7.853  -5.226   0.333
 136 H    3.367   5.226 -15.988
 137 H    1.295   2.409   2.863
 138 H    9.924  -2.409 -13.457
 139 H   -9.924   4.557  -2.863
 140 H   -1.295  -4.557  13.457
 141 H   -1.295  -2.409  -2.863
 142 H   -9.924   2.409  13.457
 143 H    9.924  -4.557   2.863
 144 H    1.295   4.557 -13.457
 145 H   -0.839   1.148 -11.469
 146 H  -10.381  -1.148   4.852
 147 H   10.381   5.818  11.469
 148 H    0.839  -5.818  -4.852
 149 H    0.839  -1.148  11.469
 150 H   10.381   1.148  -4.852
 151 H  -10.381  -5.818 -11.469
 152 H   -0.839   5.818   4.852
 153 H    1.517   0.987  -7.539
 154 H    9.703  -0.987   8.781
 155 H   -9.703   5.979   7.539
 156 H   -1.517  -5.979  -8.781
 157 H   -1.517  -0.987   7.539
 158 H   -9.703   0.987  -8.781
 159 H    9.703  -5.979  -7.539
 160 H    1.517   5.979   8.781

 *******************************************************************************
 FINISHED BASIS SET HANDLING 
 *******************************************************************************

 INFORMATION **** SET_MPP **** PCRYSTAL CALCULATION
 INFORMATION **** READM2 **** NEW DEFAULT: FOCK/KS MATRIX MIXING SET TO 30 %
 INFORMATION **** READM2 **** NEW DEFAULT: FULL DIRECT SCF MODE
 INFORMATION **** READM2 **** NEW DEFAULT: COULOMB BIPOLAR BUFFER SET TO 32 Mb
 INFORMATION **** READM2 **** NEW DEFAULT: EXCHANGE BIPOLAR BUFFER SET TO 32 Mb

 *******************************************************************************
 NEW DEFAULT: DFT INTEGRATION GRID INCREASED TO XLGRID
 NEW DEFAULT: DIIS ACCELERATOR ACTIVE
 USE KEYWORD NODIIS TO TURN IT OFF
 *******************************************************************************

 INFORMATION **** RDDFTP **** PBEh-3c calculation
 INFORMATION **** RDDFTP **** PBEh hybrid functional combined with D3 and gCP

PLEASE CITE:
(1) PBEh-3c Reference
 S. Grimme, J. G. Brandenburg, C. Bannwarth, and A. Hansen, 
 J. Chem. Phys. 143, 054107 (2015)
(2) DFT-D3 Reference
 S. Grimme, J. Antony, S. Ehrlich, and H. Krieg, J. Chem. Phys. 132, 154104 (2010)
(3) gCP Reference
 H. Kruse and S. Grimme J. Chem. Phys, 136, 154101 (2012)
 J. G. Brandenburg, M. Alessio, B. Civalleri, M. F. Peintinger
 T. Bredow, and S. Grimme, J. Phys. Chem. A, 117, 9282 (2013) 

 WARNING **** RDDFTP **** PBEh-3c has to be combined with def2-mSVP basis set
 WARNING **** RDDFTP **** Note: Harmonic frequencies are scaled by 0.95
 WARNING **** RDDFTP **** as recommended in original publication
 INFORMATION **** TOLDEE **** SCF TOL ON TOTAL ENERGY SET TO           9
 INFORMATION **** TOLINTEG **** COULOMB AND EXCHANGE SERIES TOLERANCES MODIFIED
 INFORMATION **** MAXCYCLE **** MAX NUMBER OF SCF CYCLES SET TO          30
 WARNING **** READM2 **** PROBABLE LOSS IN FREQCALC ACCURACY; SCF TOL LT          10
 *******************************************************************************
 N. OF ATOMS PER CELL       160  COULOMB OVERLAP TOL         (T1) 10**   -8
 NUMBER OF SHELLS           760  COULOMB PENETRATION TOL     (T2) 10**   -8
 NUMBER OF AO              1464  EXCHANGE OVERLAP TOL        (T3) 10**   -8
 N. OF ELECTRONS PER CELL   640  EXCHANGE PSEUDO OVP (F(G))  (T4) 10**   -8
 CORE ELECTRONS PER CELL    176  EXCHANGE PSEUDO OVP (P(G))  (T5) 10**  -24
 N. OF SYMMETRY OPERATORS     8  POLE ORDER IN MONO ZONE                  4
 *******************************************************************************
 TYPE OF CALCULATION :  RESTRICTED CLOSED SHELL
 KOHN-SHAM HAMILTONIAN

 (EXCHANGE)[CORRELATION] FUNCTIONAL:(PBEh-3c)[PBEh-3c]


 HYBRID EXCHANGE - PERCENTAGE OF FOCK EXCHANGE    42.0000

 CAPPA:IS1  4;IS2  4;IS3  2; K PTS MONK NET  18; SYMMOPS:K SPACE   8;G SPACE   8

 *******************************************************************************
 MAX NUMBER OF SCF CYCLES      30  CONVERGENCE ON DELTAP        10**-19
 WEIGHT OF F(I) IN F(I+1)      50% CONVERGENCE ON ENERGY        10**- 9
 SHRINK. FACT.(MONKH.)    4  4  2  NUMBER OF K POINTS IN THE IBZ     18
 SHRINKING FACTOR(GILAT NET)    4  NUMBER OF K POINTS(GILAT NET)     18
 *******************************************************************************
 *** K POINTS COORDINATES (OBLIQUE COORDINATES IN UNITS OF IS =  4)
   1-R(  0  0  0)   2-C(  1  0  0)   3-R(  2  0  0)   4-C(  0  1  0)
   5-C(  1  1  0)   6-C(  2  1  0)   7-R(  0  2  0)   8-C(  1  2  0)
   9-R(  2  2  0)  10-R(  0  0  1)  11-C(  1  0  1)  12-R(  2  0  1)
  13-C(  0  1  1)  14-C(  1  1  1)  15-C(  2  1  1)  16-R(  0  2  1)
  17-C(  1  2  1)  18-R(  2  2  1)

 DIRECT LATTICE VECTORS COMPON. (A.U.)     RECIP. LATTICE VECTORS COMPON. (A.U.) 
        X            Y            Z              X            Y            Z
   22.4397464    0.0000000    0.0000000      0.2800025    0.0000000    0.0000000
    0.0000000   13.9322928    0.0000000      0.0000000    0.4509800    0.0000000
    0.0000000    0.0000000   32.6406120      0.0000000    0.0000000    0.1924959

 DISK SPACE FOR EIGENVECTORS (FTN 10)    60012288 REALS

 SYMMETRY ADAPTION OF THE BLOCH FUNCTIONS ENABLED
 TTTTTTTTTTTTTTTTTTTTTTTTTTTTTT gordsh1     TELAPSE        3.96 TCPU        2.10

 MATRIX SIZE: P(G) 4560608, F(G)  426060, P(G) IRR  289489, F(G) IRR   53965
 MAX G-VECTOR INDEX FOR 1- AND 2-ELECTRON INTEGRALS  75

 TTTTTTTTTTTTTTTTTTTTTTTTTTTTTT INPUT       TELAPSE        4.09 TCPU        2.23

 NEIGHBORS OF THE NON-EQUIVALENT ATOMS

 N = NUMBER OF NEIGHBORS AT DISTANCE R
    ATOM  N     R/ANG      R/AU   NEIGHBORS (ATOM LABELS AND CELL INDICES)
   1 O    1     0.9813     1.8544   89 H    0 0 0
   1 O    1     1.3490     2.5493   25 C    0 0 0
   1 O    1     2.0703     3.9122  102 H    0 0 0
   1 O    1     2.3647     4.4686   49 C    0 0 0
   1 O    1     2.3981     4.5318   65 C    0 0 0
   1 O    1     2.6013     4.9158  113 H    0 0 0

   9 O    1     1.2309     2.3260   73 C    0 0 0
   9 O    1     1.7416     3.2911   96 H    0 0 0
   9 O    1     2.2656     4.2814   17 N    0 0 0
   9 O    1     2.3493     4.4396  105 H    0 0 0
   9 O    1     2.4024     4.5398   57 C    0 0 0
   9 O    1     2.5976     4.9087  137 H    0 0 0

  17 N    1     1.0149     1.9179   97 H    0 0 0
  17 N    1     1.3431     2.5382   73 C    0 0 0
  17 N    1     1.4086     2.6619   33 C    0 0 0
  17 N    1     2.2656     4.2814    9 O    0 0 0
  17 N    1     2.3826     4.5024   81 C    0 0 0
  17 N    1     2.3967     4.5291   57 C    0 0 0

  25 C    1     1.3490     2.5493    1 O    0 0 0
  25 C    1     1.3907     2.6281   49 C    0 0 0
  25 C    1     1.3919     2.6303   65 C    0 0 0
  25 C    1     1.9283     3.6439   89 H    0 0 0
  25 C    1     2.1462     4.0557  113 H    0 0 0
  25 C    1     2.1526     4.0679  145 H    0 0 0

  33 C    1     1.3929     2.6323   81 C    0 0 0
  33 C    1     1.3933     2.6329   41 C    0 0 0
  33 C    1     1.4086     2.6619   17 N    0 0 0
  33 C    1     2.0477     3.8695   97 H    0 0 0
  33 C    1     2.1541     4.0706  153 H    0 0 0
  33 C    1     2.1562     4.0747  105 H    0 0 0

  41 C    1     1.0776     2.0363  105 H    0 0 0
  41 C    1     1.3880     2.6229   49 C    0 0 0
  41 C    1     1.3933     2.6329   33 C    0 0 0
  41 C    1     2.1368     4.0380  113 H    0 0 0
  41 C    1     2.3938     4.5236   81 C    0 0 0
  41 C    1     2.4174     4.5682   25 C    0 0 0

  49 C    1     1.0828     2.0462  113 H    0 0 0
  49 C    1     1.3880     2.6229   41 C    0 0 0
  49 C    1     1.3907     2.6281   25 C    0 0 0
  49 C    1     2.1256     4.0168  105 H    0 0 0
  49 C    1     2.3647     4.4686    1 O    0 0 0
  49 C    1     2.3928     4.5217   65 C    0 0 0

  57 C    1     1.0872     2.0546  137 H    0 0 0
  57 C    1     1.0881     2.0563  129 H    0 0 0
  57 C    1     1.0917     2.0630  121 H    0 0 0
  57 C    1     1.5069     2.8476   73 C    0 0 0
  57 C    1     2.3967     4.5291   17 N    0 0 0
  57 C    1     2.4024     4.5398    9 O    0 0 0

  65 C    1     1.0817     2.0440  145 H    0 0 0
  65 C    1     1.3821     2.6118   81 C    0 0 0
  65 C    1     1.3919     2.6303   25 C    0 0 0
  65 C    1     2.1256     4.0168  153 H    0 0 0
  65 C    1     2.3928     4.5217   49 C    0 0 0
  65 C    1     2.3981     4.5318    1 O    0 0 0

  73 C    1     1.2309     2.3260    9 O    0 0 0
  73 C    1     1.3431     2.5382   17 N    0 0 0
  73 C    1     1.5069     2.8476   57 C    0 0 0
  73 C    1     2.0057     3.7903   97 H    0 0 0
  73 C    1     2.1355     4.0355  121 H    0 0 0
  73 C    1     2.1417     4.0472  137 H    0 0 0

  81 C    1     1.0839     2.0482  153 H    0 0 0
  81 C    1     1.3821     2.6118   65 C    0 0 0
  81 C    1     1.3929     2.6323   33 C    0 0 0
  81 C    1     2.1289     4.0229  145 H    0 0 0
  81 C    1     2.3826     4.5024   17 N    0 0 0
  81 C    1     2.3938     4.5236   41 C    0 0 0

  89 H    1     0.9813     1.8544    1 O    0 0 0
  89 H    1     1.7416     3.2911   16 O    0 0 0
  89 H    1     1.9283     3.6439   25 C    0 0 0
  89 H    1     2.3448     4.4311  145 H    0 0 0
  89 H    1     2.4741     4.6754   65 C    0 0 0
  89 H    1     2.6422     4.9931  102 H    0 0 0

  97 H    1     1.0149     1.9179   17 N    0 0 0
  97 H    1     2.0057     3.7903   73 C    0 0 0
  97 H    1     2.0477     3.8695   33 C    0 0 0
  97 H    1     2.0703     3.9122    6 O    0 0 0
  97 H    1     2.2267     4.2079  129 H    0 0 0
  97 H    1     2.2890     4.3256  153 H    0 0 0

 105 H    1     1.0776     2.0363   41 C    0 0 0
 105 H    1     2.1256     4.0168   49 C    0 0 0
 105 H    1     2.1562     4.0747   33 C    0 0 0
 105 H    1     2.3493     4.4396    9 O    0 0 0
 105 H    1     2.4318     4.5954  113 H    0 0 0
 105 H    1     2.5574     4.8327  131 H    0 0 0

 113 H    1     1.0828     2.0462   49 C    0 0 0
 113 H    1     2.1368     4.0380   41 C    0 0 0
 113 H    1     2.1462     4.0557   25 C    0 0 0
 113 H    1     2.4318     4.5954  105 H    0 0 0
 113 H    1     2.6013     4.9158    1 O    0 0 0
 113 H    1     2.7393     5.1765  158 H    0 0 0

 121 H    1     1.0917     2.0630   57 C    0 0 0
 121 H    1     1.7602     3.3263  129 H    0 0 0
 121 H    1     1.7620     3.3297  137 H    0 0 0
 121 H    1     2.1355     4.0355   73 C    0 0 0
 121 H    1     2.6950     5.0928  109 H    0 1 0
 121 H    1     2.7613     5.2181  152 H    0 0 0

 129 H    1     1.0881     2.0563   57 C    0 0 0
 129 H    1     1.7602     3.3263  121 H    0 0 0
 129 H    1     1.7662     3.3377  137 H    0 0 0
 129 H    1     2.1733     4.1069   73 C    0 0 0
 129 H    1     2.2267     4.2079   97 H    0 0 0
 129 H    1     2.5554     4.8289   17 N    0 0 0

 137 H    1     1.0872     2.0546   57 C    0 0 0
 137 H    1     1.7620     3.3297  121 H    0 0 0
 137 H    1     1.7662     3.3377  129 H    0 0 0
 137 H    1     2.1417     4.0472   73 C    0 0 0
 137 H    1     2.3744     4.4869  152 H    0 0 0
[...]
Note: The following floating-point exceptions are signalling: IEEE_UNDERFLOW_FLAG IEEE_DENORMAL
Note: The following floating-point exceptions are signalling: IEEE_UNDERFLOW_FLAG IEEE_DENORMAL
Note: The following floating-point exceptions are signalling: IEEE_UNDERFLOW_FLAG IEEE_DENORMAL
Note: The following floating-point exceptions are signalling: IEEE_UNDERFLOW_FLAG IEEE_DENORMAL
Note: The following floating-point exceptions are signalling: IEEE_UNDERFLOW_FLAG IEEE_DENORMAL
Note: The following floating-point exceptions are signalling: IEEE_UNDERFLOW_FLAG IEEE_DENORMAL
Note: The following floating-point exceptions are signalling: IEEE_UNDERFLOW_FLAG IEEE_DENORMAL
Note: The following floating-point exceptions are signalling: IEEE_UNDERFLOW_FLAG IEEE_DENORMAL
Note: The following floating-point exceptions are signalling: IEEE_UNDERFLOW_FLAG IEEE_DENORMAL
Note: The following floating-point exceptions are signalling: IEEE_UNDERFLOW_FLAG IEEE_DENORMAL
Note: The following floating-point exceptions are signalling: IEEE_UNDERFLOW_FLAG IEEE_DENORMAL
Note: The following floating-point exceptions are signalling: IEEE_UNDERFLOW_FLAG IEEE_DENORMAL
Note: The following floating-point exceptions are signalling: IEEE_UNDERFLOW_FLAG IEEE_DENORMAL
Note: The following floating-point exceptions are signalling: IEEE_UNDERFLOW_FLAG IEEE_DENORMAL
Note: The following floating-point exceptions are signalling: IEEE_UNDERFLOW_FLAG IEEE_DENORMAL
Note: The following floating-point exceptions are signalling: IEEE_UNDERFLOW_FLAG IEEE_DENORMAL
Note: The following floating-point exceptions are signalling: IEEE_UNDERFLOW_FLAG IEEE_DENORMAL
Note: The following floating-point exceptions are signalling: IEEE_UNDERFLOW_FLAG IEEE_DENORMAL
Note: The following floating-point exceptions are signalling: IEEE_UNDERFLOW_FLAG IEEE_DENORMAL
Note: The following floating-point exceptions are signalling: IEEE_UNDERFLOW_FLAG IEEE_DENORMAL
Note: The following floating-point exceptions are signalling: IEEE_UNDERFLOW_FLAG IEEE_DENORMAL
Note: The following floating-point exceptions are signalling: IEEE_UNDERFLOW_FLAG IEEE_DENORMAL
Note: The following floating-point exceptions are signalling: IEEE_UNDERFLOW_FLAG IEEE_DENORMAL
Note: The following floating-point exceptions are signalling: IEEE_UNDERFLOW_FLAG IEEE_DENORMAL
Note: The following floating-point exceptions are signalling: IEEE_UNDERFLOW_FLAG IEEE_DENORMAL
Note: The following floating-point exceptions are signalling: IEEE_UNDERFLOW_FLAG IEEE_DENORMAL
Note: The following floating-point exceptions are signalling: IEEE_UNDERFLOW_FLAG IEEE_DENORMAL
Note: The following floating-point exceptions are signalling: IEEE_UNDERFLOW_FLAG IEEE_DENORMAL
Note: The following floating-point exceptions are signalling: IEEE_UNDERFLOW_FLAG IEEE_DENORMAL
Note: The following floating-point exceptions are signalling: IEEE_UNDERFLOW_FLAG IEEE_DENORMAL
Note: The following floating-point exceptions are signalling: IEEE_UNDERFLOW_FLAG IEEE_DENORMAL
Note: The following floating-point exceptions are signalling: IEEE_UNDERFLOW_FLAG IEEE_DENORMAL
Note: The following floating-point exceptions are signalling: IEEE_UNDERFLOW_FLAG IEEE_DENORMAL
Note: The following floating-point exceptions are signalling: IEEE_UNDERFLOW_FLAG IEEE_DENORMAL
Note: The following floating-point exceptions are signalling: IEEE_UNDERFLOW_FLAG IEEE_DENORMAL
Note: The following floating-point exceptions are signalling: IEEE_UNDERFLOW_FLAG IEEE_DENORMAL
Note: The following floating-point exceptions are signalling: IEEE_UNDERFLOW_FLAG IEEE_DENORMAL
Note: The following floating-point exceptions are signalling: IEEE_UNDERFLOW_FLAG IEEE_DENORMAL
Note: The following floating-point exceptions are signalling: IEEE_UNDERFLOW_FLAG IEEE_DENORMAL
Note: The following floating-point exceptions are signalling: IEEE_UNDERFLOW_FLAG IEEE_DENORMAL
Note: The following floating-point exceptions are signalling: IEEE_UNDERFLOW_FLAG IEEE_DENORMAL
Note: The following floating-point exceptions are signalling: IEEE_UNDERFLOW_FLAG IEEE_DENORMAL
Note: The following floating-point exceptions are signalling: IEEE_UNDERFLOW_FLAG IEEE_DENORMAL
Note: The following floating-point exceptions are signalling: IEEE_UNDERFLOW_FLAG IEEE_DENORMAL
Note: The following floating-point exceptions are signalling: IEEE_UNDERFLOW_FLAG IEEE_DENORMAL
Note: The following floating-point exceptions are signalling: IEEE_UNDERFLOW_FLAG IEEE_DENORMAL
Note: The following floating-point exceptions are signalling: IEEE_UNDERFLOW_FLAG IEEE_DENORMAL
Note: The following floating-point exceptions are signalling: IEEE_UNDERFLOW_FLAG IEEE_DENORMAL
Note: The following floating-point exceptions are signalling: IEEE_UNDERFLOW_FLAG IEEE_DENORMAL
Note: The following floating-point exceptions are signalling: IEEE_UNDERFLOW_FLAG IEEE_DENORMAL
Note: The following floating-point exceptions are signalling: IEEE_UNDERFLOW_FLAG IEEE_DENORMAL
Note: The following floating-point exceptions are signalling: IEEE_UNDERFLOW_FLAG IEEE_DENORMAL
Note: The following floating-point exceptions are signalling: IEEE_UNDERFLOW_FLAG IEEE_DENORMAL
Note: The following floating-point exceptions are signalling: IEEE_UNDERFLOW_FLAG IEEE_DENORMAL
Note: The following floating-point exceptions are signalling: IEEE_UNDERFLOW_FLAG IEEE_DENORMAL
Note: The following floating-point exceptions are signalling: IEEE_UNDERFLOW_FLAG IEEE_DENORMAL
Note: The following floating-point exceptions are signalling: IEEE_UNDERFLOW_FLAG IEEE_DENORMAL
Note: The following floating-point exceptions are signalling: IEEE_UNDERFLOW_FLAG IEEE_DENORMAL
Note: The following floating-point exceptions are signalling: IEEE_UNDERFLOW_FLAG IEEE_DENORMAL
Note: The following floating-point exceptions are signalling: IEEE_UNDERFLOW_FLAG IEEE_DENORMAL
Note: The following floating-point exceptions are signalling: IEEE_UNDERFLOW_FLAG IEEE_DENORMAL
Note: The following floating-point exceptions are signalling: IEEE_UNDERFLOW_FLAG IEEE_DENORMAL
Note: The following floating-point exceptions are signalling: IEEE_UNDERFLOW_FLAG IEEE_DENORMAL
Note: The following floating-point exceptions are signalling: IEEE_UNDERFLOW_FLAG IEEE_DENORMAL
Note: The following floating-point exceptions are signalling: IEEE_UNDERFLOW_FLAG IEEE_DENORMAL
Note: The following floating-point exceptions are signalling: IEEE_UNDERFLOW_FLAG IEEE_DENORMAL
Note: The following floating-point exceptions are signalling: IEEE_UNDERFLOW_FLAG IEEE_DENORMAL
Note: The following floating-point exceptions are signalling: IEEE_UNDERFLOW_FLAG IEEE_DENORMAL
Note: The following floating-point exceptions are signalling: IEEE_UNDERFLOW_FLAG IEEE_DENORMAL
Note: The following floating-point exceptions are signalling: IEEE_UNDERFLOW_FLAG IEEE_DENORMAL
Note: The following floating-point exceptions are signalling: IEEE_UNDERFLOW_FLAG IEEE_DENORMAL
Note: The following floating-point exceptions are signalling: IEEE_UNDERFLOW_FLAG IEEE_DENORMAL
Note: The following floating-point exceptions are signalling: IEEE_UNDERFLOW_FLAG IEEE_DENORMAL
Note: The following floating-point exceptions are signalling: IEEE_UNDERFLOW_FLAG IEEE_DENORMAL
Note: The following floating-point exceptions are signalling: IEEE_UNDERFLOW_FLAG IEEE_DENORMAL
Note: The following floating-point exceptions are signalling: IEEE_UNDERFLOW_FLAG IEEE_DENORMAL
Note: The following floating-point exceptions are signalling: IEEE_UNDERFLOW_FLAG IEEE_DENORMAL
Note: The following floating-point exceptions are signalling: IEEE_UNDERFLOW_FLAG IEEE_DENORMAL
Note: The following floating-point exceptions are signalling: IEEE_UNDERFLOW_FLAG IEEE_DENORMAL
Note: The following floating-point exceptions are signalling: IEEE_UNDERFLOW_FLAG IEEE_DENORMAL
Note: The following floating-point exceptions are signalling: IEEE_UNDERFLOW_FLAG IEEE_DENORMAL
Note: The following floating-point exceptions are signalling: IEEE_UNDERFLOW_FLAG IEEE_DENORMAL
Note: The following floating-point exceptions are signalling: IEEE_UNDERFLOW_FLAG IEEE_DENORMAL
Note: The following floating-point exceptions are signalling: IEEE_UNDERFLOW_FLAG IEEE_DENORMAL
Note: The following floating-point exceptions are signalling: IEEE_UNDERFLOW_FLAG IEEE_DENORMAL
Note: The following floating-point exceptions are signalling: IEEE_UNDERFLOW_FLAG IEEE_DENORMAL
Note: The following floating-point exceptions are signalling: IEEE_UNDERFLOW_FLAG IEEE_DENORMAL
Note: The following floating-point exceptions are signalling: IEEE_UNDERFLOW_FLAG IEEE_DENORMAL
Note: The following floating-point exceptions are signalling: IEEE_UNDERFLOW_FLAG IEEE_DENORMAL
Note: The following floating-point exceptions are signalling: IEEE_UNDERFLOW_FLAG IEEE_DENORMAL
Note: The following floating-point exceptions are signalling: IEEE_UNDERFLOW_FLAG IEEE_DENORMAL
Note: The following floating-point exceptions are signalling: IEEE_UNDERFLOW_FLAG IEEE_DENORMAL
Note: The following floating-point exceptions are signalling: IEEE_UNDERFLOW_FLAG IEEE_DENORMAL
Note: The following floating-point exceptions are signalling: IEEE_UNDERFLOW_FLAG IEEE_DENORMAL
Note: The following floating-point exceptions are signalling: IEEE_UNDERFLOW_FLAG IEEE_DENORMAL
Note: The following floating-point exceptions are signalling: IEEE_UNDERFLOW_FLAG IEEE_DENORMAL
Note: The following floating-point exceptions are signalling: IEEE_UNDERFLOW_FLAG IEEE_DENORMAL
Note: The following floating-point exceptions are signalling: IEEE_UNDERFLOW_FLAG IEEE_DENORMAL
Note: The following floating-point exceptions are signalling: IEEE_UNDERFLOW_FLAG IEEE_DENORMAL
Note: The following floating-point exceptions are signalling: IEEE_UNDERFLOW_FLAG IEEE_DENORMAL
Note: The following floating-point exceptions are signalling: IEEE_UNDERFLOW_FLAG IEEE_DENORMAL
Note: The following floating-point exceptions are signalling: IEEE_UNDERFLOW_FLAG IEEE_DENORMAL
Note: The following floating-point exceptions are signalling: IEEE_UNDERFLOW_FLAG IEEE_DENORMAL
Note: The following floating-point exceptions are signalling: IEEE_UNDERFLOW_FLAG IEEE_DENORMAL
Note: The following floating-point exceptions are signalling: IEEE_UNDERFLOW_FLAG IEEE_DENORMAL
Note: The following floating-point exceptions are signalling: IEEE_UNDERFLOW_FLAG IEEE_DENORMAL
Note: The following floating-point exceptions are signalling: IEEE_UNDERFLOW_FLAG IEEE_DENORMAL
Note: The following floating-point exceptions are signalling: IEEE_UNDERFLOW_FLAG IEEE_DENORMAL
Note: The following floating-point exceptions are signalling: IEEE_UNDERFLOW_FLAG IEEE_DENORMAL
Note: The following floating-point exceptions are signalling: IEEE_UNDERFLOW_FLAG IEEE_DENORMAL
Note: The following floating-point exceptions are signalling: IEEE_UNDERFLOW_FLAG IEEE_DENORMAL
Note: The following floating-point exceptions are signalling: IEEE_UNDERFLOW_FLAG IEEE_DENORMAL
Note: The following floating-point exceptions are signalling: IEEE_UNDERFLOW_FLAG IEEE_DENORMAL
Note: The following floating-point exceptions are signalling: IEEE_UNDERFLOW_FLAG IEEE_DENORMAL
Note: The following floating-point exceptions are signalling: IEEE_UNDERFLOW_FLAG IEEE_DENORMAL
Note: The following floating-point exceptions are signalling: IEEE_UNDERFLOW_FLAG IEEE_DENORMAL
Note: The following floating-point exceptions are signalling: IEEE_UNDERFLOW_FLAG IEEE_DENORMAL
Note: The following floating-point exceptions are signalling: IEEE_UNDERFLOW_FLAG IEEE_DENORMAL
Note: The following floating-point exceptions are signalling: IEEE_UNDERFLOW_FLAG IEEE_DENORMAL
Note: The following floating-point exceptions are signalling: IEEE_UNDERFLOW_FLAG IEEE_DENORMAL
Note: The following floating-point exceptions are signalling: IEEE_UNDERFLOW_FLAG IEEE_DENORMAL
Note: The following floating-point exceptions are signalling: IEEE_UNDERFLOW_FLAG IEEE_DENORMAL
Note: The following floating-point exceptions are signalling: IEEE_UNDERFLOW_FLAG IEEE_DENORMAL
Note: The following floating-point exceptions are signalling: IEEE_UNDERFLOW_FLAG IEEE_DENORMAL
Note: The following floating-point exceptions are signalling: IEEE_UNDERFLOW_FLAG IEEE_DENORMAL
Note: The following floating-point exceptions are signalling: IEEE_UNDERFLOW_FLAG IEEE_DENORMAL
Note: The following floating-point exceptions are signalling: IEEE_UNDERFLOW_FLAG IEEE_DENORMAL
Note: The following floating-point exceptions are signalling: IEEE_UNDERFLOW_FLAG IEEE_DENORMAL
Note: The following floating-point exceptions are signalling: IEEE_UNDERFLOW_FLAG IEEE_DENORMAL
Note: The following floating-point exceptions are signalling: IEEE_UNDERFLOW_FLAG IEEE_DENORMAL
Note: The following floating-point exceptions are signalling: IEEE_UNDERFLOW_FLAG IEEE_DENORMAL
Note: The following floating-point exceptions are signalling: IEEE_UNDERFLOW_FLAG IEEE_DENORMAL
Note: The following floating-point exceptions are signalling: IEEE_UNDERFLOW_FLAG IEEE_DENORMAL
Note: The following floating-point exceptions are signalling: IEEE_UNDERFLOW_FLAG IEEE_DENORMAL
Note: The following floating-point exceptions are signalling: IEEE_UNDERFLOW_FLAG IEEE_DENORMAL
Note: The following floating-point exceptions are signalling: IEEE_UNDERFLOW_FLAG IEEE_DENORMAL
Note: The following floating-point exceptions are signalling: IEEE_UNDERFLOW_FLAG IEEE_DENORMAL
Note: The following floating-point exceptions are signalling: IEEE_UNDERFLOW_FLAG IEEE_DENORMAL
Note: The following floating-point exceptions are signalling: IEEE_UNDERFLOW_FLAG IEEE_DENORMAL
Note: The following floating-point exceptions are signalling: IEEE_UNDERFLOW_FLAG IEEE_DENORMAL
Note: The following floating-point exceptions are signalling: IEEE_UNDERFLOW_FLAG IEEE_DENORMAL
Note: The following floating-point exceptions are signalling: IEEE_UNDERFLOW_FLAG IEEE_DENORMAL
Note: The following floating-point exceptions are signalling: IEEE_UNDERFLOW_FLAG IEEE_DENORMAL
Note: The following floating-point exceptions are signalling: IEEE_UNDERFLOW_FLAG IEEE_DENORMAL
Note: The following floating-point exceptions are signalling: IEEE_UNDERFLOW_FLAG IEEE_DENORMAL
Note: The following floating-point exceptions are signalling: IEEE_UNDERFLOW_FLAG IEEE_DENORMAL
Note: The following floating-point exceptions are signalling: IEEE_UNDERFLOW_FLAG IEEE_DENORMAL
Note: The following floating-point exceptions are signalling: IEEE_UNDERFLOW_FLAG IEEE_DENORMAL
Note: The following floating-point exceptions are signalling: IEEE_UNDERFLOW_FLAG IEEE_DENORMAL
Note: The following floating-point exceptions are signalling: IEEE_UNDERFLOW_FLAG IEEE_DENORMAL
Note: The following floating-point exceptions are signalling: IEEE_UNDERFLOW_FLAG IEEE_DENORMAL
Note: The following floating-point exceptions are signalling: IEEE_UNDERFLOW_FLAG IEEE_DENORMAL
Note: The following floating-point exceptions are signalling: IEEE_UNDERFLOW_FLAG IEEE_DENORMAL
Note: The following floating-point exceptions are signalling: IEEE_UNDERFLOW_FLAG IEEE_DENORMAL
Note: The following floating-point exceptions are signalling: IEEE_UNDERFLOW_FLAG IEEE_DENORMAL
Note: The following floating-point exceptions are signalling: IEEE_UNDERFLOW_FLAG IEEE_DENORMAL
Note: The following floating-point exceptions are signalling: IEEE_UNDERFLOW_FLAG IEEE_DENORMAL
Note: The following floating-point exceptions are signalling: IEEE_UNDERFLOW_FLAG IEEE_DENORMAL
Note: The following floating-point exceptions are signalling: IEEE_UNDERFLOW_FLAG IEEE_DENORMAL
Note: The following floating-point exceptions are signalling: IEEE_UNDERFLOW_FLAG IEEE_DENORMAL
Note: The following floating-point exceptions are signalling: IEEE_UNDERFLOW_FLAG IEEE_DENORMAL
Note: The following floating-point exceptions are signalling: IEEE_UNDERFLOW_FLAG IEEE_DENORMAL
Note: The following floating-point exceptions are signalling: IEEE_UNDERFLOW_FLAG IEEE_DENORMAL
Note: The following floating-point exceptions are signalling: IEEE_UNDERFLOW_FLAG IEEE_DENORMAL
Note: The following floating-point exceptions are signalling: IEEE_UNDERFLOW_FLAG IEEE_DENORMAL
Note: The following floating-point exceptions are signalling: IEEE_UNDERFLOW_FLAG IEEE_DENORMAL
Note: The following floating-point exceptions are signalling: IEEE_UNDERFLOW_FLAG IEEE_DENORMAL
Note: The following floating-point exceptions are signalling: IEEE_UNDERFLOW_FLAG IEEE_DENORMAL
Note: The following floating-point exceptions are signalling: IEEE_UNDERFLOW_FLAG IEEE_DENORMAL
Note: The following floating-point exceptions are signalling: IEEE_UNDERFLOW_FLAG IEEE_DENORMAL
Note: The following floating-point exceptions are signalling: IEEE_UNDERFLOW_FLAG IEEE_DENORMAL
Note: The following floating-point exceptions are signalling: IEEE_UNDERFLOW_FLAG IEEE_DENORMAL
Note: The following floating-point exceptions are signalling: IEEE_UNDERFLOW_FLAG IEEE_DENORMAL
Note: The following floating-point exceptions are signalling: IEEE_UNDERFLOW_FLAG IEEE_DENORMAL
Note: The following floating-point exceptions are signalling: IEEE_UNDERFLOW_FLAG IEEE_DENORMAL
Note: The following floating-point exceptions are signalling: IEEE_UNDERFLOW_FLAG IEEE_DENORMAL
Note: The following floating-point exceptions are signalling: IEEE_UNDERFLOW_FLAG IEEE_DENORMAL
Note: The following floating-point exceptions are signalling: IEEE_UNDERFLOW_FLAG IEEE_DENORMAL
Note: The following floating-point exceptions are signalling: IEEE_UNDERFLOW_FLAG IEEE_DENORMAL
Note: The following floating-point exceptions are signalling: IEEE_UNDERFLOW_FLAG IEEE_DENORMAL
Note: The following floating-point exceptions are signalling: IEEE_UNDERFLOW_FLAG IEEE_DENORMAL
Note: The following floating-point exceptions are signalling: IEEE_UNDERFLOW_FLAG IEEE_DENORMAL
Note: The following floating-point exceptions are signalling: IEEE_UNDERFLOW_FLAG IEEE_DENORMAL
Note: The following floating-point exceptions are signalling: IEEE_UNDERFLOW_FLAG IEEE_DENORMAL
Note: The following floating-point exceptions are signalling: IEEE_UNDERFLOW_FLAG IEEE_DENORMAL
Note: The following floating-point exceptions are signalling: IEEE_UNDERFLOW_FLAG IEEE_DENORMAL
Note: The following floating-point exceptions are signalling: IEEE_UNDERFLOW_FLAG IEEE_DENORMAL
Note: The following floating-point exceptions are signalling: IEEE_UNDERFLOW_FLAG IEEE_DENORMAL
Note: The following floating-point exceptions are signalling: IEEE_UNDERFLOW_FLAG IEEE_DENORMAL
Note: The following floating-point exceptions are signalling: IEEE_UNDERFLOW_FLAG IEEE_DENORMAL
Note: The following floating-point exceptions are signalling: IEEE_UNDERFLOW_FLAG IEEE_DENORMAL
Note: The following floating-point exceptions are signalling: IEEE_UNDERFLOW_FLAG IEEE_DENORMAL
Note: The following floating-point exceptions are signalling: IEEE_UNDERFLOW_FLAG IEEE_DENORMAL
Note: The following floating-point exceptions are signalling: IEEE_UNDERFLOW_FLAG IEEE_DENORMAL
Note: The following floating-point exceptions are signalling: IEEE_UNDERFLOW_FLAG IEEE_DENORMAL
Note: The following floating-point exceptions are signalling: IEEE_UNDERFLOW_FLAG IEEE_DENORMAL
Note: The following floating-point exceptions are signalling: IEEE_UNDERFLOW_FLAG IEEE_DENORMAL
Note: The following floating-point exceptions are signalling: IEEE_UNDERFLOW_FLAG IEEE_DENORMAL
Note: The following floating-point exceptions are signalling: IEEE_UNDERFLOW_FLAG IEEE_DENORMAL
Note: The following floating-point exceptions are signalling: IEEE_UNDERFLOW_FLAG IEEE_DENORMAL
Note: The following floating-point exceptions are signalling: IEEE_UNDERFLOW_FLAG IEEE_DENORMAL
Note: The following floating-point exceptions are signalling: IEEE_UNDERFLOW_FLAG IEEE_DENORMAL
Note: The following floating-point exceptions are signalling: IEEE_UNDERFLOW_FLAG IEEE_DENORMAL
Note: The following floating-point exceptions are signalling: IEEE_UNDERFLOW_FLAG IEEE_DENORMAL
Note: The following floating-point exceptions are signalling: IEEE_UNDERFLOW_FLAG IEEE_DENORMAL
Note: The following floating-point exceptions are signalling: IEEE_UNDERFLOW_FLAG IEEE_DENORMAL
Note: The following floating-point exceptions are signalling: IEEE_UNDERFLOW_FLAG IEEE_DENORMAL
Note: The following floating-point exceptions are signalling: IEEE_UNDERFLOW_FLAG IEEE_DENORMAL
