Lmod has detected the following error: The following module(s) are unknown:
"epcc-job-env"

Please check the spelling or version number. Also try "module spider ..."
It is also possible your cache file is out-of-date; it may help to try:
  $ module --ignore-cache load "epcc-job-env"

Also make sure that all modulefiles written in TCL start with the string
#%Module




Warning: You have enabled access to software packages installed
by external parties on ARCHER2 or those that are not fully-supported.
The ARCHER2 CSE service does not test these packages. The service desk
will make reasonable efforts to assist with questions on the use of
these packages but some issues may not be able to be resolved by the
service and they may direct you to seek help from external parties.


         512 PROCESSORS WORKING

         
 *******************************************************************************
 *                                                                             *
 *                               CRYSTAL17                                     *
 *                      public : 1.0.2 - March 1st, 2018 STFC/Archer2 build    *
 *                       HTTP://WWW.CRYSTAL.UNITO.IT                           *
 *                                                                             *
 *                              MAIN AUTHORS                                   *
 *                                                                             *
 *  R. DOVESI(1,11), V.R. SAUNDERS(2), C. ROETTI(1,11), R. ORLANDO(1,11),      *
 *  C.M. ZICOVICH-WILSON(1,3), F. PASCALE(4), B. CIVALLERI(1,11),              *
 *  K. DOLL(5), N.M. HARRISON(2,6), I.J. BUSH(7), Ph. D'ARCO(8),               *
 *  M. LLUNELL(9), M. CAUSA'(10), Y. NOEL(8), L. MASCHIO(1,11), A. ERBA(1,11)  *
 *  M. RE'RAT(14), S. CASASSA(1,11)                                            *
 *                                                                             *
 *        CONTRIBUTIONS TO THE CODE HAVE ALSO BEEN GIVEN BY                    *
 *                                                                             *
 *  M. FERRABONE(1,11), M. DE LA PIERRE(1,11), M. FERRERO(1,11),               *
 *  J. BAIMA(1,11), E. ALBANESE(1,11), M.F. PEINTINGER(12), R. BAST(13),       *
 *  B. KIRTMAN(15), V. LACIVITA(1,11), R. DEMICHELIS(1,16)                     *
 *  G. BRANDEBURG(17), S. SALUSTRO(1,11), G. SANSONE(1,11)                     *
 *  M.T. RUGGIERO(18)                                                          *
 *                                                                             *
 * (1) THEORETICAL CHEMISTRY GROUP - UNIVERSITA' DI TORINO - TORINO (ITALY)    *
 * (2) COMPUTATIONAL SCIENCE & ENGINEERING DEPARTMENT - STFC DARESBURY (UK)    *
 * (3) UNIVERSIDAD AUTONOMA DEL ESTADO DE MORELOS - CUERNAVACA (MEXICO)        *
 * (4) UNIVERSITE' DE LORRAINE - NANCY (FRANCE)                                *
 * (5) UNIVERSITAET STUTTGART- STUTTGART (GERMANY)                             *
 * (6) IMPERIAL COLLEGE - LONDON (UK)                                          *
 * (7) OXFORD E-RESEARCH CENTRE - OXFORD (UK)                                  *
 * (8) UPMC - SORBONNE UNIVERSITES - PARIS (FRANCE)                            *
 * (9) UNIVERSIDAD DE BARCELONA - BARCELONA (SPAIN)                            *
 *(10) UNIVERSITA' DI NAPOLI "FEDERICO II" - NAPOLI (ITALY)                    *
 *(11) NIS - NANOSTRUCTURED INTERFACES AND SURFACES - TORINO (ITALY)           *
 *(12) MPI FUER CHEMISCHE ENERGIEKONVERSION - MUELHEIM AN DER RUHR (GERMANY)   *
 *(13) UNIVERSITY OF TROMSO - TROMSO (NORWAY)                                  *
 *(14) UNIVERSITE' DE PAU ET DES PAYS DE L'ADOUR - PAU (FRANCE)                *
 *(15) UNIVERSITY OF CALIFORNIA SANTA BARBARA - SANTA BARBARA (USA)            *
 *(16) CURTIN UNIVERSITY - PERTH (AUSTRALIA)                                   *
 *(17) UNIVERSITY COLLEGE LONDON - LONDON (UK)                                 *
 *(18) CAMBRIDGE UNIVERSITY - CAMBRIDGE (UK)                                   *
 *                                                                             *
 *******************************************************************************
 EEEEEEEEEE STARTING  DATE 09 03 2022 TIME 09:47:12.8
 F2 vol stepp5 freq - PBEh-3c                                                    

 GEOMETRY INPUT FROM EXTERNAL FILE (FORTRAN UNIT 34)
 3D - CRYSTAL 

 *******************************************************************************
 LATTICE PARAMETERS  (ANGSTROMS AND DEGREES) - PRIMITIVE CELL
       A          B          C        ALPHA      BETA     GAMMA        VOLUME
   11.89409    7.42109   17.29638    90.00000  90.00000  90.00000   1526.700986

 NUMBER OF IRREDUCIBLE ATOMS IN THE CELL:   20

 CARTESIAN COORDINATES (ANGSTROM) - IRREDUCIBLE ATOMS AND SYMMETRY RELATED

 AT.IRR.  AT  AT.N.          X                   Y                   Z
     1     1     8   -2.797344417171E+00  1.832478405416E+00 -6.410985170742E+00
     1     2     8   -3.149700141952E+00 -1.832478405416E+00  2.237202379626E+00
     1     3     8    3.149700141952E+00  1.878066631692E+00  6.410985170742E+00
     1     4     8    2.797344417171E+00 -1.878066631692E+00 -2.237202379626E+00
     1     5     8    2.797344417171E+00 -1.832478405416E+00  6.410985170742E+00
     1     6     8    3.149700141952E+00  1.832478405416E+00 -2.237202379626E+00
     1     7     8   -3.149700141952E+00 -1.878066631692E+00 -6.410985170742E+00
     1     8     8   -2.797344417171E+00  1.878066631692E+00  2.237202379626E+00
     9     9     8   -1.288852232953E+00  2.028177112619E+00 -2.194162836700E-02
     9    10     8   -4.658192326170E+00 -2.028177112619E+00 -8.670129178735E+00
     9    11     8    4.658192326170E+00  1.682367924488E+00  2.194162836700E-02
     9    12     8    1.288852232953E+00 -1.682367924488E+00  8.670129178735E+00
     9    13     8    1.288852232953E+00 -2.028177112619E+00  2.194162836700E-02
     9    14     8    4.658192326170E+00  2.028177112619E+00  8.670129178735E+00
     9    15     8   -4.658192326170E+00 -1.682367924488E+00 -2.194162836700E-02
     9    16     8   -1.288852232953E+00  1.682367924488E+00 -8.670129178735E+00
    17    17     7    1.528220068270E-01  1.558250421496E+00 -1.705897354296E+00
    17    18     7    5.794222552296E+00 -1.558250421496E+00  6.942290196072E+00
    17    19     7   -5.794222552296E+00  2.152294615611E+00  1.705897354296E+00
    17    20     7   -1.528220068270E-01 -2.152294615611E+00 -6.942290196072E+00
    17    21     7   -1.528220068270E-01 -1.558250421496E+00  1.705897354296E+00
    17    22     7   -5.794222552296E+00  1.558250421496E+00 -6.942290196072E+00
    17    23     7    5.794222552296E+00 -2.152294615611E+00 -1.705897354296E+00
    17    24     7    1.528220068270E-01  2.152294615611E+00  6.942290196072E+00
    25    25     6   -2.101564629155E+00  1.726952679540E+00 -5.259995119224E+00
    25    26     6   -3.845479929968E+00 -1.726952679540E+00  3.388192431143E+00
    25    27     6    3.845479929968E+00  1.983592357567E+00  5.259995119224E+00
    25    28     6    2.101564629155E+00 -1.983592357567E+00 -3.388192431143E+00
    25    29     6    2.101564629155E+00 -1.726952679540E+00  5.259995119224E+00
    25    30     6    3.845479929968E+00  1.726952679540E+00 -3.388192431143E+00
    25    31     6   -3.845479929968E+00 -1.983592357567E+00 -5.259995119224E+00
    25    32     6   -2.101564629155E+00  1.983592357567E+00  3.388192431143E+00
    33    33     6   -6.760835483290E-01  1.601343631973E+00 -2.844244963596E+00
    33    34     6   -5.270961010794E+00 -1.601343631973E+00  5.803942586772E+00
    33    35     6    5.270961010794E+00  2.109201405134E+00  2.844244963596E+00
    33    36     6    6.760835483290E-01 -2.109201405134E+00 -5.803942586772E+00
    33    37     6    6.760835483290E-01 -1.601343631973E+00  2.844244963596E+00
    33    38     6    5.270961010794E+00  1.601343631973E+00 -5.803942586772E+00
    33    39     6   -5.270961010794E+00 -2.109201405134E+00 -2.844244963596E+00
    33    40     6   -6.760835483290E-01  2.109201405134E+00  5.803942586772E+00
    41    41     6   -1.933113343191E+00  2.200229268036E+00 -2.895104936602E+00
    41    42     6   -4.013931215932E+00 -2.200229268036E+00  5.753082613765E+00
    41    43     6    4.013931215932E+00  1.510315769072E+00  2.895104936602E+00
    41    44     6    1.933113343191E+00 -1.510315769072E+00 -5.753082613765E+00
    41    45     6    1.933113343191E+00 -2.200229268036E+00  2.895104936602E+00
    41    46     6    4.013931215932E+00  2.200229268036E+00 -5.753082613765E+00
    41    47     6   -4.013931215932E+00 -1.510315769072E+00 -2.895104936602E+00
    41    48     6   -1.933113343191E+00  1.510315769072E+00  5.753082613765E+00
    49    49     6   -2.634576168357E+00  2.260643096375E+00 -4.091390799005E+00
    49    50     6   -3.312468390766E+00 -2.260643096375E+00  4.556796751363E+00
    49    51     6    3.312468390766E+00  1.449901940733E+00  4.091390799005E+00
    49    52     6    2.634576168357E+00 -1.449901940733E+00 -4.556796751363E+00
    49    53     6    2.634576168357E+00 -2.260643096375E+00  4.091390799005E+00
    49    54     6    3.312468390766E+00  2.260643096375E+00 -4.556796751363E+00
    49    55     6   -3.312468390766E+00 -1.449901940733E+00 -4.091390799005E+00
    49    56     6   -2.634576168357E+00  1.449901940733E+00  4.556796751363E+00
    57    57     6    1.013173052417E+00  1.620366457974E+00  5.305189988270E-01
    57    58     6    4.933871506706E+00 -1.620366457974E+00 -8.117668551541E+00
    57    59     6   -4.933871506706E+00  2.090178579133E+00 -5.305189988270E-01
    57    60     6   -1.013173052417E+00 -2.090178579133E+00  8.117668551541E+00
    57    61     6   -1.013173052417E+00 -1.620366457974E+00 -5.305189988270E-01
    57    62     6   -4.933871506706E+00  1.620366457974E+00  8.117668551541E+00
    57    63     6    4.933871506706E+00 -2.090178579133E+00  5.305189988270E-01
    57    64     6    1.013173052417E+00  2.090178579133E+00 -8.117668551541E+00
    65    65     6   -8.656842005370E-01  1.089317126024E+00 -5.198323718407E+00
    65    66     6   -5.081360358586E+00 -1.089317126024E+00  3.449863831961E+00
    65    67     6    5.081360358586E+00  2.621227911083E+00  5.198323718407E+00
    65    68     6    8.656842005370E-01 -2.621227911083E+00 -3.449863831961E+00
    65    69     6    8.656842005370E-01 -1.089317126024E+00  5.198323718407E+00
    65    70     6    5.081360358586E+00  1.089317126024E+00 -3.449863831961E+00
    65    71     6   -5.081360358586E+00 -2.621227911083E+00 -5.198323718407E+00
    65    72     6   -8.656842005370E-01  2.621227911083E+00  3.449863831961E+00
    73    73     6   -1.557152588960E-01  1.748244754788E+00 -4.122183308550E-01
    73    74     6   -5.791329300227E+00 -1.748244754788E+00  8.235969219512E+00
    73    75     6    5.791329300227E+00  1.962300282320E+00  4.122183308550E-01
    73    76     6    1.557152588960E-01 -1.962300282320E+00 -8.235969219512E+00
    73    77     6    1.557152588960E-01 -1.748244754788E+00  4.122183308550E-01
    73    78     6    5.791329300227E+00  1.748244754788E+00 -8.235969219512E+00
    73    79     6   -5.791329300227E+00 -1.962300282320E+00 -4.122183308550E-01
    73    80     6   -1.557152588960E-01  1.962300282320E+00  8.235969219512E+00
    81    81     6   -1.644093530520E-01  1.032825798323E+00 -4.008483263519E+00
    81    82     6   -5.782635206071E+00 -1.032825798323E+00  4.639704286848E+00
    81    83     6    5.782635206071E+00  2.677719238784E+00  4.008483263519E+00
    81    84     6    1.644093530520E-01 -2.677719238784E+00 -4.639704286848E+00
    81    85     6    1.644093530520E-01 -1.032825798323E+00  4.008483263519E+00
    81    86     6    5.782635206071E+00  1.032825798323E+00 -4.639704286848E+00
    81    87     6   -5.782635206071E+00 -2.677719238784E+00 -4.008483263519E+00
    81    88     6   -1.644093530520E-01  2.677719238784E+00  4.639704286848E+00
    89    89     1   -2.209681301994E+00  1.702206960568E+00 -7.185777525666E+00
    89    90     1   -3.737363257129E+00 -1.702206960568E+00  1.462410024701E+00
    89    91     1    3.737363257129E+00  2.008338076539E+00  7.185777525666E+00
    89    92     1    2.209681301994E+00 -2.008338076539E+00 -1.462410024701E+00
    89    93     1    2.209681301994E+00 -1.702206960568E+00  7.185777525666E+00
    89    94     1    3.737363257129E+00  1.702206960568E+00 -1.462410024701E+00
    89    95     1   -3.737363257129E+00 -2.008338076539E+00 -7.185777525666E+00
    89    96     1   -2.209681301994E+00  2.008338076539E+00  1.462410024701E+00
    97    97     1    1.136437820600E+00  1.414489108465E+00 -1.909586437658E+00
    97    98     1    4.810606738523E+00 -1.414489108465E+00  6.738601112710E+00
    97    99     1   -4.810606738523E+00  2.296055928643E+00  1.909586437658E+00
    97   100     1   -1.136437820600E+00 -2.296055928643E+00 -6.738601112710E+00
    97   101     1   -1.136437820600E+00 -1.414489108465E+00  1.909586437658E+00
    97   102     1   -4.810606738523E+00  1.414489108465E+00 -6.738601112710E+00
    97   103     1    4.810606738523E+00 -2.296055928643E+00 -1.909586437658E+00
    97   104     1    1.136437820600E+00  2.296055928643E+00  6.738601112710E+00
   105   105     1   -2.371089457322E+00  2.647010410820E+00 -2.017599851660E+00
   105   106     1   -3.575955101801E+00 -2.647010410820E+00  6.630587698707E+00
   105   107     1    3.575955101801E+00  1.063534626287E+00  2.017599851660E+00
   105   108     1    2.371089457322E+00 -1.063534626287E+00 -6.630587698707E+00
   105   109     1    2.371089457322E+00 -2.647010410820E+00  2.017599851660E+00
   105   110     1    3.575955101801E+00  2.647010410820E+00 -6.630587698707E+00
   105   111     1   -3.575955101801E+00 -1.063534626287E+00 -2.017599851660E+00
   105   112     1   -2.371089457322E+00  1.063534626287E+00  6.630587698707E+00
   113   113     1   -3.598534027628E+00  2.753463528026E+00 -4.114673552561E+00
   113   114     1   -2.348510531495E+00 -2.753463528026E+00  4.533513997807E+00
   113   115     1    2.348510531495E+00  9.570815090820E-01  4.114673552561E+00
   113   116     1    3.598534027628E+00 -9.570815090820E-01 -4.533513997807E+00
   113   117     1    3.598534027628E+00 -2.753463528026E+00  4.114673552561E+00
   113   118     1    2.348510531495E+00  2.753463528026E+00 -4.533513997807E+00
   113   119     1   -2.348510531495E+00 -9.570815090820E-01 -4.114673552561E+00
   113   120     1   -3.598534027628E+00  9.570815090820E-01  4.533513997807E+00
   121   121     1    1.484453164610E+00  2.596465723666E+00  6.612139767220E-01
   121   122     1    4.462591394513E+00 -2.596465723666E+00 -7.986973573645E+00
   121   123     1   -4.462591394513E+00  1.114079313441E+00 -6.612139767220E-01
   121   124     1   -1.484453164610E+00 -1.114079313441E+00  7.986973573645E+00
   121   125     1   -1.484453164610E+00 -2.596465723666E+00 -6.612139767220E-01
   121   126     1   -4.462591394513E+00  2.596465723666E+00  7.986973573645E+00
   121   127     1    4.462591394513E+00 -1.114079313441E+00  6.612139767220E-01
   121   128     1    1.484453164610E+00  1.114079313441E+00 -7.986973573645E+00
   129   129     1    1.773762060560E+00  9.317792211380E-01  1.678785944600E-01
   129   130     1    4.173282498563E+00 -9.317792211380E-01 -8.480308955908E+00
   129   131     1   -4.173282498563E+00  2.778765815970E+00 -1.678785944600E-01
   129   132     1   -1.773762060560E+00 -2.778765815970E+00  8.480308955908E+00
   129   133     1   -1.773762060560E+00 -9.317792211380E-01 -1.678785944600E-01
   129   134     1   -4.173282498563E+00  9.317792211380E-01  8.480308955908E+00
   129   135     1    4.173282498563E+00 -2.778765815970E+00  1.678785944600E-01
   129   136     1    1.773762060560E+00  2.778765815970E+00 -8.480308955908E+00
   137   137     1    6.740610915680E-01  1.279333984789E+00  1.505708218043E+00
   137   138     1    5.272983467555E+00 -1.279333984789E+00 -7.142479332324E+00
   137   139     1   -5.272983467555E+00  2.431211052319E+00 -1.505708218043E+00
   137   140     1   -6.740610915680E-01 -2.431211052319E+00  7.142479332324E+00
   137   141     1   -6.740610915680E-01 -1.279333984789E+00 -1.505708218043E+00
   137   142     1   -5.272983467555E+00  1.279333984789E+00  7.142479332324E+00
   137   143     1    5.272983467555E+00 -2.431211052319E+00  1.505708218043E+00
   137   144     1    6.740610915680E-01  2.431211052319E+00 -7.142479332324E+00
   145   145     1   -4.479014372770E-01  6.166807627930E-01 -6.077154212012E+00
   145   146     1   -5.499143121846E+00 -6.166807627930E-01  2.571033338355E+00
   145   147     1    5.499143121846E+00  3.093864274314E+00  6.077154212012E+00
   145   148     1    4.479014372770E-01 -3.093864274314E+00 -2.571033338355E+00
   145   149     1    4.479014372770E-01 -6.166807627930E-01  6.077154212012E+00
   145   150     1    5.499143121846E+00  6.166807627930E-01 -2.571033338355E+00
   145   151     1   -5.499143121846E+00 -3.093864274314E+00 -6.077154212012E+00
   145   152     1   -4.479014372770E-01  3.093864274314E+00  2.571033338355E+00
   153   153     1    7.969455996130E-01  5.321562186920E-01 -3.996456028102E+00
   153   154     1    5.150098959510E+00 -5.321562186920E-01  4.651731522266E+00
   153   155     1   -5.150098959510E+00  3.178388818415E+00  3.996456028102E+00
   153   156     1   -7.969455996130E-01 -3.178388818415E+00 -4.651731522266E+00
   153   157     1   -7.969455996130E-01 -5.321562186920E-01  3.996456028102E+00
   153   158     1   -5.150098959510E+00  5.321562186920E-01 -4.651731522266E+00
   153   159     1    5.150098959510E+00 -3.178388818415E+00 -3.996456028102E+00
   153   160     1    7.969455996130E-01  3.178388818415E+00  4.651731522266E+00

 SPACE  GROUP  N.                     :   61
 NUMBER OF SYMMETRY OPERATORS         :    8
 *******************************************************************************
 LATTICE PARAMETERS (ANGSTROMS AND DEGREES) - BOHR = 0.5291772083 ANGSTROM
 PRIMITIVE CELL - CENTRING CODE 1/0 VOLUME=  1526.700986 - DENSITY  1.314 g/cm^3
         A              B              C           ALPHA      BETA       GAMMA 
    11.89408912     7.42109007    17.29637510    90.000000  90.000000  90.000000
 *******************************************************************************
 ATOMS IN THE ASYMMETRIC UNIT   20 - ATOMS IN THE UNIT CELL:  160
     ATOM                 X/A                 Y/B                 Z/C    
 *******************************************************************************
      1 T   8 O    -2.351877801967E-01  2.469284683367E-01 -3.706548414576E-01
      2 F   8 O    -2.648122198052E-01 -2.469284683367E-01  1.293451585434E-01
      3 F   8 O     2.648122198052E-01  2.530715316630E-01  3.706548414576E-01
      4 F   8 O     2.351877801967E-01 -2.530715316630E-01 -1.293451585434E-01
      5 F   8 O     2.351877801967E-01 -2.469284683367E-01  3.706548414576E-01
      6 F   8 O     2.648122198052E-01  2.469284683367E-01 -1.293451585434E-01
      7 F   8 O    -2.648122198052E-01 -2.530715316630E-01 -3.706548414576E-01
      8 F   8 O    -2.351877801967E-01  2.530715316630E-01  1.293451585434E-01
      9 T   8 O    -1.083607344913E-01  2.732990830639E-01 -1.268568023025E-03
     10 F   8 O    -3.916392655106E-01 -2.732990830639E-01  4.987314319759E-01
     11 F   8 O     3.916392655106E-01  2.267009169357E-01  1.268568023025E-03
     12 F   8 O     1.083607344913E-01 -2.267009169357E-01 -4.987314319759E-01
     13 F   8 O     1.083607344913E-01 -2.732990830639E-01  1.268568023025E-03
     14 F   8 O     3.916392655106E-01  2.732990830639E-01 -4.987314319759E-01
     15 F   8 O    -3.916392655106E-01 -2.267009169357E-01 -1.268568023025E-03
     16 F   8 O    -1.083607344913E-01  2.267009169357E-01  4.987314319759E-01
     17 T   7 N     1.284856749502E-02  2.099759477262E-01 -9.862744906746E-02
     18 F   7 N     4.871514325069E-01 -2.099759477262E-01  4.013725509336E-01
     19 F   7 N    -4.871514325069E-01  2.900240522734E-01  9.862744906746E-02
     20 F   7 N    -1.284856749502E-02 -2.900240522734E-01 -4.013725509336E-01
     21 F   7 N    -1.284856749502E-02 -2.099759477262E-01  9.862744906746E-02
     22 F   7 N    -4.871514325069E-01  2.099759477262E-01 -4.013725509336E-01
     23 F   7 N     4.871514325069E-01 -2.900240522734E-01 -9.862744906746E-02
     24 F   7 N     1.284856749502E-02  2.900240522734E-01  4.013725509336E-01
     25 T   6 C    -1.766898337712E-01  2.327087614176E-01 -3.041096812829E-01
     26 F   6 C    -3.233101662307E-01 -2.327087614176E-01  1.958903187180E-01
     27 F   6 C     3.233101662307E-01  2.672912385820E-01  3.041096812829E-01
     28 F   6 C     1.766898337712E-01 -2.672912385820E-01 -1.958903187180E-01
     29 F   6 C     1.766898337712E-01 -2.327087614176E-01  3.041096812829E-01
     30 F   6 C     3.233101662307E-01  2.327087614176E-01 -1.958903187180E-01
     31 F   6 C    -3.233101662307E-01 -2.672912385820E-01 -3.041096812829E-01
     32 F   6 C    -1.766898337712E-01  2.672912385820E-01  1.958903187180E-01
     33 T   6 C    -5.684197769247E-02  2.157828049461E-01 -1.644416790823E-01
     34 F   6 C    -4.431580223095E-01 -2.157828049461E-01  3.355583209188E-01
     35 F   6 C     4.431580223095E-01  2.842171950535E-01  1.644416790823E-01
     36 F   6 C     5.684197769247E-02 -2.842171950535E-01 -3.355583209188E-01
     37 F   6 C     5.684197769247E-02 -2.157828049461E-01  1.644416790823E-01
     38 F   6 C     4.431580223095E-01  2.157828049461E-01 -3.355583209188E-01
     39 F   6 C    -4.431580223095E-01 -2.842171950535E-01 -1.644416790823E-01
     40 F   6 C    -5.684197769247E-02  2.842171950535E-01  3.355583209188E-01
     41 T   6 C    -1.625272287756E-01  2.964832990883E-01 -1.673821780429E-01
     42 F   6 C    -3.374727712263E-01 -2.964832990883E-01  3.326178219581E-01
     43 F   6 C     3.374727712263E-01  2.035167009115E-01  1.673821780429E-01
     44 F   6 C     1.625272287756E-01 -2.035167009115E-01 -3.326178219581E-01
     45 F   6 C     1.625272287756E-01 -2.964832990883E-01  1.673821780429E-01
     46 F   6 C     3.374727712263E-01  2.964832990883E-01 -3.326178219581E-01
     47 F   6 C    -3.374727712263E-01 -2.035167009115E-01 -1.673821780429E-01
     48 F   6 C    -1.625272287756E-01  2.035167009115E-01  3.326178219581E-01
     49 T   6 C    -2.215029786792E-01  3.046241284994E-01 -2.365461419046E-01
     50 F   6 C    -2.784970213227E-01 -3.046241284994E-01  2.634538580965E-01
     51 F   6 C     2.784970213227E-01  1.953758715003E-01  2.365461419046E-01
     52 F   6 C     2.215029786792E-01 -1.953758715003E-01 -2.634538580965E-01
     53 F   6 C     2.215029786792E-01 -3.046241284994E-01  2.365461419046E-01
     54 F   6 C     2.784970213227E-01  3.046241284994E-01 -2.634538580965E-01
     55 F   6 C    -2.784970213227E-01 -1.953758715003E-01 -2.365461419046E-01
     56 F   6 C    -2.215029786792E-01  1.953758715003E-01  2.634538580965E-01
     57 T   6 C     8.518290407516E-02  2.183461515449E-01  3.067226489587E-02
     58 F   6 C     4.148170959268E-01 -2.183461515449E-01 -4.693277351052E-01
     59 F   6 C    -4.148170959268E-01  2.816538484547E-01 -3.067226489587E-02
     60 F   6 C    -8.518290407516E-02 -2.816538484547E-01  4.693277351052E-01
     61 F   6 C    -8.518290407516E-02 -2.183461515449E-01 -3.067226489587E-02
     62 F   6 C    -4.148170959268E-01  2.183461515449E-01  4.693277351052E-01
     63 F   6 C     4.148170959268E-01 -2.816538484547E-01  3.067226489587E-02
     64 F   6 C     8.518290407516E-02  2.816538484547E-01 -4.693277351052E-01
     65 T   6 C    -7.278272358094E-02  1.467866735385E-01 -3.005441133268E-01
     66 F   6 C    -4.272172764210E-01 -1.467866735385E-01  1.994558866743E-01
     67 F   6 C     4.272172764210E-01  3.532133264611E-01  3.005441133268E-01
     68 F   6 C     7.278272358094E-02 -3.532133264611E-01 -1.994558866743E-01
     69 F   6 C     7.278272358094E-02 -1.467866735385E-01  3.005441133268E-01
     70 F   6 C     4.272172764210E-01  1.467866735385E-01 -1.994558866743E-01
     71 F   6 C    -4.272172764210E-01 -3.532133264611E-01 -3.005441133268E-01
     72 F   6 C    -7.278272358094E-02  3.532133264611E-01  1.994558866743E-01
     73 T   6 C    -1.309181874699E-02  2.355778918331E-01 -2.383264287777E-02
     74 F   6 C    -4.869081812549E-01 -2.355778918331E-01  4.761673571232E-01
     75 F   6 C     4.869081812549E-01  2.644221081667E-01  2.383264287777E-02
     76 F   6 C     1.309181874699E-02 -2.644221081667E-01 -4.761673571232E-01
     77 F   6 C     1.309181874699E-02 -2.355778918331E-01  2.383264287777E-02
     78 F   6 C     4.869081812549E-01  2.355778918331E-01 -4.761673571232E-01
     79 F   6 C    -4.869081812549E-01 -2.644221081667E-01 -2.383264287777E-02
     80 F   6 C    -1.309181874699E-02  2.644221081667E-01  4.761673571232E-01
     81 T   6 C    -1.382277797132E-02  1.391744053762E-01 -2.317527944544E-01
     82 F   6 C    -4.861772220306E-01 -1.391744053762E-01  2.682472055466E-01
     83 F   6 C     4.861772220306E-01  3.608255946234E-01  2.317527944544E-01
     84 F   6 C     1.382277797132E-02 -3.608255946234E-01 -2.682472055466E-01
     85 F   6 C     1.382277797132E-02 -1.391744053762E-01  2.317527944544E-01
     86 F   6 C     4.861772220306E-01  1.391744053762E-01 -2.682472055466E-01
     87 F   6 C    -4.861772220306E-01 -3.608255946234E-01 -2.317527944544E-01
     88 F   6 C    -1.382277797132E-02  3.608255946234E-01  2.682472055466E-01
     89 T   1 H    -1.857797835576E-01  2.293742487349E-01 -4.154499127031E-01
     90 F   1 H    -3.142202164443E-01 -2.293742487349E-01  8.455008729788E-02
     91 F   1 H     3.142202164443E-01  2.706257512647E-01  4.154499127031E-01
     92 F   1 H     1.857797835576E-01 -2.706257512647E-01 -8.455008729788E-02
     93 F   1 H     1.857797835576E-01 -2.293742487349E-01  4.154499127031E-01
     94 F   1 H     3.142202164443E-01  2.293742487349E-01 -8.455008729788E-02
     95 F   1 H    -3.142202164443E-01 -2.706257512647E-01 -4.154499127031E-01
     96 F   1 H    -1.857797835576E-01  2.706257512647E-01  8.455008729788E-02
     97 T   1 H     9.554643565442E-02  1.906039536400E-01 -1.104038520523E-01
     98 F   1 H     4.044535643475E-01 -1.906039536400E-01  3.895961479488E-01
     99 F   1 H    -4.044535643475E-01  3.093960463597E-01  1.104038520523E-01
    100 F   1 H    -9.554643565442E-02 -3.093960463597E-01 -3.895961479488E-01
    101 F   1 H    -9.554643565442E-02 -1.906039536400E-01  1.104038520523E-01
    102 F   1 H    -4.044535643475E-01  1.906039536400E-01 -3.895961479488E-01
    103 F   1 H     4.044535643475E-01 -3.093960463597E-01 -1.104038520523E-01
    104 F   1 H     9.554643565442E-02  3.093960463597E-01  3.895961479488E-01
    105 T   1 H    -1.993502347056E-01  3.566875464853E-01 -1.166487104907E-01
    106 F   1 H    -3.006497652964E-01 -3.566875464853E-01  3.833512895103E-01
    107 F   1 H     3.006497652964E-01  1.433124535143E-01  1.166487104907E-01
    108 F   1 H     1.993502347056E-01 -1.433124535143E-01 -3.833512895103E-01
    109 F   1 H     1.993502347056E-01 -3.566875464853E-01  1.166487104907E-01
    110 F   1 H     3.006497652964E-01  3.566875464853E-01 -3.833512895103E-01
    111 F   1 H    -3.006497652964E-01 -1.433124535143E-01 -1.166487104907E-01
    112 F   1 H    -1.993502347056E-01  1.433124535143E-01  3.833512895103E-01
    113 T   1 H    -3.025480969469E-01  3.710322204000E-01 -2.378922478615E-01
    114 F   1 H    -1.974519030551E-01 -3.710322204000E-01  2.621077521396E-01
    115 F   1 H     1.974519030551E-01  1.289677795998E-01  2.378922478615E-01
    116 F   1 H     3.025480969469E-01 -1.289677795998E-01 -2.621077521396E-01
    117 F   1 H     3.025480969469E-01 -3.710322204000E-01  2.378922478615E-01
    118 F   1 H     1.974519030551E-01  3.710322204000E-01 -2.621077521396E-01
    119 F   1 H    -1.974519030551E-01 -1.289677795998E-01 -2.378922478615E-01
    120 F   1 H    -3.025480969469E-01  1.289677795998E-01  2.621077521396E-01
    121 T   1 H     1.248059561231E-01  3.498765946375E-01  3.822847116071E-02
    122 F   1 H     3.751940438789E-01 -3.498765946375E-01 -4.617715288403E-01
    123 F   1 H    -3.751940438789E-01  1.501234053621E-01 -3.822847116071E-02
    124 F   1 H    -1.248059561231E-01 -1.501234053621E-01  4.617715288403E-01
    125 F   1 H    -1.248059561231E-01 -3.498765946375E-01 -3.822847116071E-02
    126 F   1 H    -3.751940438789E-01  3.498765946375E-01  4.617715288403E-01
    127 F   1 H     3.751940438789E-01 -1.501234053621E-01  3.822847116071E-02
    128 F   1 H     1.248059561231E-01  1.501234053621E-01 -4.617715288403E-01
    129 T   1 H     1.491297099705E-01  1.255582686397E-01  9.705998712598E-03
    130 F   1 H     3.508702900315E-01 -1.255582686397E-01 -4.902940012884E-01
    131 F   1 H    -3.508702900315E-01  3.744417313601E-01 -9.705998712598E-03
    132 F   1 H    -1.491297099705E-01 -3.744417313601E-01  4.902940012884E-01
    133 F   1 H    -1.491297099705E-01 -1.255582686397E-01 -9.705998712598E-03
    134 F   1 H    -3.508702900315E-01  1.255582686397E-01  4.902940012884E-01
    135 F   1 H     3.508702900315E-01 -3.744417313601E-01  9.705998712598E-03
    136 F   1 H     1.491297099705E-01  3.744417313601E-01 -4.902940012884E-01
    137 T   1 H     5.667193888236E-02  1.723916529774E-01  8.705339756317E-02
    138 F   1 H     4.433280611196E-01 -1.723916529774E-01 -4.129466024378E-01
    139 F   1 H    -4.433280611196E-01  3.276083470223E-01 -8.705339756317E-02
    140 F   1 H    -5.667193888236E-02 -3.276083470223E-01  4.129466024378E-01
    141 F   1 H    -5.667193888236E-02 -1.723916529774E-01 -8.705339756317E-02
    142 F   1 H    -4.433280611196E-01  1.723916529774E-01  4.129466024378E-01
    143 F   1 H     4.433280611196E-01 -3.276083470223E-01  8.705339756317E-02
    144 F   1 H     5.667193888236E-02  3.276083470223E-01 -4.129466024378E-01
    145 T   1 H    -3.765748119304E-02  8.309840692209E-02 -3.513542101527E-01
    146 F   1 H    -4.623425188089E-01 -8.309840692209E-02  1.486457898482E-01
    147 F   1 H     4.623425188089E-01  4.169015930775E-01  3.513542101527E-01
    148 F   1 H     3.765748119304E-02 -4.169015930775E-01 -1.486457898482E-01
    149 F   1 H     3.765748119304E-02 -8.309840692209E-02  3.513542101527E-01
    150 F   1 H     4.623425188089E-01  8.309840692209E-02 -1.486457898482E-01
    151 F   1 H    -4.623425188089E-01 -4.169015930775E-01 -3.513542101527E-01
    152 F   1 H    -3.765748119304E-02  4.169015930775E-01  1.486457898482E-01
    153 T   1 H     6.700349994802E-02  7.170863220494E-02 -2.310574328340E-01
    154 F   1 H     4.329965000539E-01 -7.170863220494E-02  2.689425671670E-01
    155 F   1 H    -4.329965000539E-01  4.282913677947E-01  2.310574328340E-01
    156 F   1 H    -6.700349994802E-02 -4.282913677947E-01 -2.689425671670E-01
    157 F   1 H    -6.700349994802E-02 -7.170863220494E-02  2.310574328340E-01
    158 F   1 H    -4.329965000539E-01  7.170863220494E-02 -2.689425671670E-01
    159 F   1 H     4.329965000539E-01 -4.282913677947E-01 -2.310574328340E-01
    160 F   1 H     6.700349994802E-02  4.282913677947E-01  2.689425671670E-01

 T = ATOM BELONGING TO THE ASYMMETRIC UNIT
 *******************************************************************************
 * GEOMETRY EDITING - INPUT COORDINATES ARE GIVEN IN ANGSTROM         
 *******************************************************************************

 GEOMETRY NOW FULLY CONSISTENT WITH THE GROUP

 FRQFRQFRQFRQFRQFRQFRQFRQFRQFRQFRQFRQFRQFRQFRQFRQFRQFRQFRQFRQFRQFRQFRQFRQFRQFRQ

                       FREQUENCY CALCULATION

 INFORMATION **** INPFREQ ****  PRINTING OF EIGENVECTORS
 INFORMATION **** INPFREQ **** NEW DEFAULT - IMPOSING ECKART CONDITIONS TO THE HESSIAN

 GCALCO - MAX INDICES DIRECT LATTICE VECTOR    14    23     9
 NO.OF VECTORS CREATED 6999 STARS 1061 RMAX   258.46405 BOHR

 GEOMETRY FOR WAVE FUNCTION - DIMENSIONALITY OF THE SYSTEM    3
 (NON PERIODIC DIRECTION: LATTICE PARAMETER FORMALLY SET TO 500)
 *******************************************************************************
 LATTICE PARAMETERS (ANGSTROMS AND DEGREES) - BOHR = 0.5291772083 ANGSTROM
 PRIMITIVE CELL - CENTRING CODE 1/0 VOLUME=  1526.700986 - DENSITY  1.314 g/cm^3
         A              B              C           ALPHA      BETA       GAMMA 
    11.89408912     7.42109007    17.29637510    90.000000  90.000000  90.000000
 *******************************************************************************
 ATOMS IN THE ASYMMETRIC UNIT   20 - ATOMS IN THE UNIT CELL:  160
     ATOM                 X/A                 Y/B                 Z/C    
 *******************************************************************************
      1 T   8 O    -2.351877801967E-01  2.469284683367E-01 -3.706548414576E-01
      2 F   8 O    -2.648122198016E-01 -2.469284683367E-01  1.293451585435E-01
      3 F   8 O     2.648122198050E-01  2.530715316633E-01  3.706548414576E-01
      4 F   8 O     2.351877801967E-01 -2.530715316633E-01 -1.293451585412E-01
      5 F   8 O     2.351877801967E-01 -2.469284683367E-01  3.706548414576E-01
      6 F   8 O     2.648122198050E-01  2.469284683367E-01 -1.293451585412E-01
      7 F   8 O    -2.648122198016E-01 -2.530715316633E-01 -3.706548414576E-01
      8 F   8 O    -2.351877801967E-01  2.530715316633E-01  1.293451585435E-01
      9 T   8 O    -1.083607344913E-01  2.732990830639E-01 -1.268568023025E-03
     10 F   8 O    -3.916392655070E-01 -2.732990830639E-01  4.987314319781E-01
     11 F   8 O     3.916392655104E-01  2.267009169361E-01  1.268568023025E-03
     12 F   8 O     1.083607344913E-01 -2.267009169361E-01 -4.987314319758E-01
     13 F   8 O     1.083607344913E-01 -2.732990830639E-01  1.268568023025E-03
     14 F   8 O     3.916392655104E-01  2.732990830639E-01 -4.987314319758E-01
     15 F   8 O    -3.916392655070E-01 -2.267009169361E-01 -1.268568023025E-03
     16 F   8 O    -1.083607344913E-01  2.267009169361E-01  4.987314319781E-01
     17 T   7 N     1.284856749502E-02  2.099759477262E-01 -9.862744906746E-02
     18 F   7 N     4.871514325067E-01 -2.099759477262E-01  4.013725509337E-01
     19 F   7 N    -4.871514325033E-01  2.900240522738E-01  9.862744906746E-02
     20 F   7 N    -1.284856749502E-02 -2.900240522738E-01 -4.013725509314E-01
     21 F   7 N    -1.284856749502E-02 -2.099759477262E-01  9.862744906746E-02
     22 F   7 N    -4.871514325033E-01  2.099759477262E-01 -4.013725509314E-01
     23 F   7 N     4.871514325067E-01 -2.900240522738E-01 -9.862744906746E-02
     24 F   7 N     1.284856749502E-02  2.900240522738E-01  4.013725509337E-01
     25 T   6 C    -1.766898337712E-01  2.327087614176E-01 -3.041096812829E-01
     26 F   6 C    -3.233101662271E-01 -2.327087614176E-01  1.958903187182E-01
     27 F   6 C     3.233101662304E-01  2.672912385824E-01  3.041096812829E-01
     28 F   6 C     1.766898337712E-01 -2.672912385824E-01 -1.958903187159E-01
     29 F   6 C     1.766898337712E-01 -2.327087614176E-01  3.041096812829E-01
     30 F   6 C     3.233101662304E-01  2.327087614176E-01 -1.958903187159E-01
     31 F   6 C    -3.233101662271E-01 -2.672912385824E-01 -3.041096812829E-01
     32 F   6 C    -1.766898337712E-01  2.672912385824E-01  1.958903187182E-01
     33 T   6 C    -5.684197769247E-02  2.157828049461E-01 -1.644416790823E-01
     34 F   6 C    -4.431580223058E-01 -2.157828049461E-01  3.355583209189E-01
     35 F   6 C     4.431580223092E-01  2.842171950539E-01  1.644416790823E-01
     36 F   6 C     5.684197769247E-02 -2.842171950539E-01 -3.355583209166E-01
     37 F   6 C     5.684197769247E-02 -2.157828049461E-01  1.644416790823E-01
     38 F   6 C     4.431580223092E-01  2.157828049461E-01 -3.355583209166E-01
     39 F   6 C    -4.431580223058E-01 -2.842171950539E-01 -1.644416790823E-01
     40 F   6 C    -5.684197769247E-02  2.842171950539E-01  3.355583209189E-01
     41 T   6 C    -1.625272287756E-01  2.964832990883E-01 -1.673821780429E-01
     42 F   6 C    -3.374727712227E-01 -2.964832990883E-01  3.326178219583E-01
     43 F   6 C     3.374727712261E-01  2.035167009117E-01  1.673821780429E-01
     44 F   6 C     1.625272287756E-01 -2.035167009117E-01 -3.326178219560E-01
     45 F   6 C     1.625272287756E-01 -2.964832990883E-01  1.673821780429E-01
     46 F   6 C     3.374727712261E-01  2.964832990883E-01 -3.326178219560E-01
     47 F   6 C    -3.374727712227E-01 -2.035167009117E-01 -1.673821780429E-01
     48 F   6 C    -1.625272287756E-01  2.035167009117E-01  3.326178219583E-01
     49 T   6 C    -2.215029786792E-01  3.046241284994E-01 -2.365461419046E-01
     50 F   6 C    -2.784970213191E-01 -3.046241284994E-01  2.634538580966E-01
     51 F   6 C     2.784970213225E-01  1.953758715006E-01  2.365461419046E-01
     52 F   6 C     2.215029786792E-01 -1.953758715006E-01 -2.634538580943E-01
     53 F   6 C     2.215029786792E-01 -3.046241284994E-01  2.365461419046E-01
     54 F   6 C     2.784970213225E-01  3.046241284994E-01 -2.634538580943E-01
     55 F   6 C    -2.784970213191E-01 -1.953758715006E-01 -2.365461419046E-01
     56 F   6 C    -2.215029786792E-01  1.953758715006E-01  2.634538580966E-01
     57 T   6 C     8.518290407516E-02  2.183461515449E-01  3.067226489587E-02
     58 F   6 C     4.148170959265E-01 -2.183461515449E-01 -4.693277351030E-01
     59 F   6 C    -4.148170959232E-01  2.816538484551E-01 -3.067226489587E-02
     60 F   6 C    -8.518290407516E-02 -2.816538484551E-01  4.693277351053E-01
     61 F   6 C    -8.518290407516E-02 -2.183461515449E-01 -3.067226489587E-02
     62 F   6 C    -4.148170959232E-01  2.183461515449E-01  4.693277351053E-01
     63 F   6 C     4.148170959265E-01 -2.816538484551E-01  3.067226489587E-02
     64 F   6 C     8.518290407516E-02  2.816538484551E-01 -4.693277351030E-01
     65 T   6 C    -7.278272358094E-02  1.467866735385E-01 -3.005441133268E-01
     66 F   6 C    -4.272172764174E-01 -1.467866735385E-01  1.994558866744E-01
     67 F   6 C     4.272172764207E-01  3.532133264615E-01  3.005441133268E-01
     68 F   6 C     7.278272358094E-02 -3.532133264615E-01 -1.994558866721E-01
     69 F   6 C     7.278272358094E-02 -1.467866735385E-01  3.005441133268E-01
     70 F   6 C     4.272172764207E-01  1.467866735385E-01 -1.994558866721E-01
     71 F   6 C    -4.272172764174E-01 -3.532133264615E-01 -3.005441133268E-01
     72 F   6 C    -7.278272358094E-02  3.532133264615E-01  1.994558866744E-01
     73 T   6 C    -1.309181874699E-02  2.355778918331E-01 -2.383264287777E-02
     74 F   6 C    -4.869081812513E-01 -2.355778918331E-01  4.761673571234E-01
     75 F   6 C     4.869081812547E-01  2.644221081669E-01  2.383264287777E-02
     76 F   6 C     1.309181874699E-02 -2.644221081669E-01 -4.761673571211E-01
     77 F   6 C     1.309181874699E-02 -2.355778918331E-01  2.383264287777E-02
     78 F   6 C     4.869081812547E-01  2.355778918331E-01 -4.761673571211E-01
     79 F   6 C    -4.869081812513E-01 -2.644221081669E-01 -2.383264287777E-02
     80 F   6 C    -1.309181874699E-02  2.644221081669E-01  4.761673571234E-01
     81 T   6 C    -1.382277797132E-02  1.391744053762E-01 -2.317527944544E-01
     82 F   6 C    -4.861772220270E-01 -1.391744053762E-01  2.682472055467E-01
     83 F   6 C     4.861772220304E-01  3.608255946238E-01  2.317527944544E-01
     84 F   6 C     1.382277797132E-02 -3.608255946238E-01 -2.682472055444E-01
     85 F   6 C     1.382277797132E-02 -1.391744053762E-01  2.317527944544E-01
     86 F   6 C     4.861772220304E-01  1.391744053762E-01 -2.682472055444E-01
     87 F   6 C    -4.861772220270E-01 -3.608255946238E-01 -2.317527944544E-01
     88 F   6 C    -1.382277797132E-02  3.608255946238E-01  2.682472055467E-01
     89 T   1 H    -1.857797835576E-01  2.293742487349E-01 -4.154499127031E-01
     90 F   1 H    -3.142202164407E-01 -2.293742487349E-01  8.455008729805E-02
     91 F   1 H     3.142202164441E-01  2.706257512651E-01  4.154499127031E-01
     92 F   1 H     1.857797835576E-01 -2.706257512651E-01 -8.455008729574E-02
     93 F   1 H     1.857797835576E-01 -2.293742487349E-01  4.154499127031E-01
     94 F   1 H     3.142202164441E-01  2.293742487349E-01 -8.455008729574E-02
     95 F   1 H    -3.142202164407E-01 -2.706257512651E-01 -4.154499127031E-01
     96 F   1 H    -1.857797835576E-01  2.706257512651E-01  8.455008729805E-02
     97 T   1 H     9.554643565442E-02  1.906039536400E-01 -1.104038520523E-01
     98 F   1 H     4.044535643473E-01 -1.906039536400E-01  3.895961479489E-01
     99 F   1 H    -4.044535643439E-01  3.093960463600E-01  1.104038520523E-01
    100 F   1 H    -9.554643565442E-02 -3.093960463600E-01 -3.895961479466E-01
    101 F   1 H    -9.554643565442E-02 -1.906039536400E-01  1.104038520523E-01
    102 F   1 H    -4.044535643439E-01  1.906039536400E-01 -3.895961479466E-01
    103 F   1 H     4.044535643473E-01 -3.093960463600E-01 -1.104038520523E-01
    104 F   1 H     9.554643565442E-02  3.093960463600E-01  3.895961479489E-01
    105 T   1 H    -1.993502347056E-01  3.566875464853E-01 -1.166487104907E-01
    106 F   1 H    -3.006497652928E-01 -3.566875464853E-01  3.833512895105E-01
    107 F   1 H     3.006497652961E-01  1.433124535147E-01  1.166487104907E-01
    108 F   1 H     1.993502347056E-01 -1.433124535147E-01 -3.833512895081E-01
    109 F   1 H     1.993502347056E-01 -3.566875464853E-01  1.166487104907E-01
    110 F   1 H     3.006497652961E-01  3.566875464853E-01 -3.833512895081E-01
    111 F   1 H    -3.006497652928E-01 -1.433124535147E-01 -1.166487104907E-01
    112 F   1 H    -1.993502347056E-01  1.433124535147E-01  3.833512895105E-01
    113 T   1 H    -3.025480969469E-01  3.710322204000E-01 -2.378922478615E-01
    114 F   1 H    -1.974519030514E-01 -3.710322204000E-01  2.621077521397E-01
    115 F   1 H     1.974519030548E-01  1.289677796000E-01  2.378922478615E-01
    116 F   1 H     3.025480969469E-01 -1.289677796000E-01 -2.621077521374E-01
    117 F   1 H     3.025480969469E-01 -3.710322204000E-01  2.378922478615E-01
    118 F   1 H     1.974519030548E-01  3.710322204000E-01 -2.621077521374E-01
    119 F   1 H    -1.974519030514E-01 -1.289677796000E-01 -2.378922478615E-01
    120 F   1 H    -3.025480969469E-01  1.289677796000E-01  2.621077521397E-01
    121 T   1 H     1.248059561231E-01  3.498765946375E-01  3.822847116071E-02
    122 F   1 H     3.751940438786E-01 -3.498765946375E-01 -4.617715288381E-01
    123 F   1 H    -3.751940438752E-01  1.501234053625E-01 -3.822847116071E-02
    124 F   1 H    -1.248059561231E-01 -1.501234053625E-01  4.617715288404E-01
    125 F   1 H    -1.248059561231E-01 -3.498765946375E-01 -3.822847116071E-02
    126 F   1 H    -3.751940438752E-01  3.498765946375E-01  4.617715288404E-01
    127 F   1 H     3.751940438786E-01 -1.501234053625E-01  3.822847116071E-02
    128 F   1 H     1.248059561231E-01  1.501234053625E-01 -4.617715288381E-01
    129 T   1 H     1.491297099705E-01  1.255582686397E-01  9.705998712598E-03
    130 F   1 H     3.508702900312E-01 -1.255582686397E-01 -4.902940012862E-01
    131 F   1 H    -3.508702900279E-01  3.744417313603E-01 -9.705998712598E-03
    132 F   1 H    -1.491297099705E-01 -3.744417313603E-01  4.902940012886E-01
    133 F   1 H    -1.491297099705E-01 -1.255582686397E-01 -9.705998712598E-03
    134 F   1 H    -3.508702900279E-01  1.255582686397E-01  4.902940012886E-01
    135 F   1 H     3.508702900312E-01 -3.744417313603E-01  9.705998712598E-03
    136 F   1 H     1.491297099705E-01  3.744417313603E-01 -4.902940012862E-01
    137 T   1 H     5.667193888236E-02  1.723916529774E-01  8.705339756317E-02
    138 F   1 H     4.433280611193E-01 -1.723916529774E-01 -4.129466024357E-01
    139 F   1 H    -4.433280611160E-01  3.276083470226E-01 -8.705339756317E-02
    140 F   1 H    -5.667193888236E-02 -3.276083470226E-01  4.129466024380E-01
    141 F   1 H    -5.667193888236E-02 -1.723916529774E-01 -8.705339756317E-02
    142 F   1 H    -4.433280611160E-01  1.723916529774E-01  4.129466024380E-01
    143 F   1 H     4.433280611193E-01 -3.276083470226E-01  8.705339756317E-02
    144 F   1 H     5.667193888236E-02  3.276083470226E-01 -4.129466024357E-01
    145 T   1 H    -3.765748119304E-02  8.309840692209E-02 -3.513542101527E-01
    146 F   1 H    -4.623425188053E-01 -8.309840692209E-02  1.486457898484E-01
    147 F   1 H     4.623425188086E-01  4.169015930779E-01  3.513542101527E-01
    148 F   1 H     3.765748119304E-02 -4.169015930779E-01 -1.486457898461E-01
    149 F   1 H     3.765748119304E-02 -8.309840692209E-02  3.513542101527E-01
    150 F   1 H     4.623425188086E-01  8.309840692209E-02 -1.486457898461E-01
    151 F   1 H    -4.623425188053E-01 -4.169015930779E-01 -3.513542101527E-01
    152 F   1 H    -3.765748119304E-02  4.169015930779E-01  1.486457898484E-01
    153 T   1 H     6.700349994802E-02  7.170863220494E-02 -2.310574328340E-01
    154 F   1 H     4.329965000537E-01 -7.170863220494E-02  2.689425671671E-01
    155 F   1 H    -4.329965000503E-01  4.282913677951E-01  2.310574328340E-01
    156 F   1 H    -6.700349994802E-02 -4.282913677951E-01 -2.689425671648E-01
    157 F   1 H    -6.700349994802E-02 -7.170863220494E-02  2.310574328340E-01
    158 F   1 H    -4.329965000503E-01  7.170863220494E-02 -2.689425671648E-01
    159 F   1 H     4.329965000537E-01 -4.282913677951E-01 -2.310574328340E-01
    160 F   1 H     6.700349994802E-02  4.282913677951E-01  2.689425671671E-01

 T = ATOM BELONGING TO THE ASYMMETRIC UNIT

 ****    8 SYMMOPS - TRANSLATORS IN FRACTIONAL UNITS
 **** MATRICES AND TRANSLATORS IN THE CRYSTALLOGRAPHIC REFERENCE FRAME
   V INV                    ROTATION MATRICES                   TRANSLATORS
   1   1  1.00  0.00  0.00  0.00  1.00  0.00  0.00  0.00  1.00  0.00  0.00  0.00
   2   2 -1.00  0.00  0.00  0.00 -1.00  0.00  0.00  0.00  1.00  0.50  0.00  0.50
   3   3  1.00  0.00  0.00  0.00 -1.00  0.00  0.00  0.00 -1.00  0.50  0.50  0.00
   4   4 -1.00  0.00  0.00  0.00  1.00  0.00  0.00  0.00 -1.00  0.00  0.50  0.50
   5   5 -1.00  0.00  0.00  0.00 -1.00  0.00  0.00  0.00 -1.00  0.00  0.00  0.00
   6   6  1.00  0.00  0.00  0.00  1.00  0.00  0.00  0.00 -1.00  0.50  0.00  0.50
   7   7 -1.00  0.00  0.00  0.00  1.00  0.00  0.00  0.00  1.00  0.50  0.50  0.00
   8   8  1.00  0.00  0.00  0.00 -1.00  0.00  0.00  0.00  1.00  0.00  0.50  0.50

 DIRECT LATTICE VECTORS CARTESIAN COMPONENTS (ANGSTROM)
          X                    Y                    Z
   0.118940891182E+02   0.000000000000E+00   0.000000000000E+00
   0.000000000000E+00   0.742109007422E+01   0.000000000000E+00
   0.000000000000E+00   0.000000000000E+00   0.172963751007E+02


 CARTESIAN COORDINATES - PRIMITIVE CELL
 *******************************************************************************
 *      ATOM          X(ANGSTROM)         Y(ANGSTROM)         Z(ANGSTROM)
 *******************************************************************************
    1     8 O    -2.797344417171E+00  1.832478405416E+00 -6.410985170742E+00
    2     8 O    -3.149700141909E+00 -1.832478405416E+00  2.237202379628E+00
    3     8 O     3.149700141949E+00  1.878066631694E+00  6.410985170742E+00
    4     8 O     2.797344417171E+00 -1.878066631694E+00 -2.237202379588E+00
    5     8 O     2.797344417171E+00 -1.832478405416E+00  6.410985170742E+00
    6     8 O     3.149700141949E+00  1.832478405416E+00 -2.237202379588E+00
    7     8 O    -3.149700141909E+00 -1.878066631694E+00 -6.410985170742E+00
    8     8 O    -2.797344417171E+00  1.878066631694E+00  2.237202379628E+00
    9     8 O    -1.288852232953E+00  2.028177112619E+00 -2.194162836700E-02
   10     8 O    -4.658192326127E+00 -2.028177112619E+00 -8.670129178697E+00
   11     8 O     4.658192326167E+00  1.682367924491E+00  2.194162836700E-02
   12     8 O     1.288852232953E+00 -1.682367924491E+00  8.670129178737E+00
   13     8 O     1.288852232953E+00 -2.028177112619E+00  2.194162836700E-02
   14     8 O     4.658192326167E+00  2.028177112619E+00  8.670129178737E+00
   15     8 O    -4.658192326127E+00 -1.682367924491E+00 -2.194162836700E-02
   16     8 O    -1.288852232953E+00  1.682367924491E+00 -8.670129178697E+00
   17     7 N     1.528220068270E-01  1.558250421496E+00 -1.705897354296E+00
   18     7 N     5.794222552293E+00 -1.558250421496E+00  6.942290196074E+00
   19     7 N    -5.794222552253E+00  2.152294615614E+00  1.705897354296E+00
   20     7 N    -1.528220068270E-01 -2.152294615614E+00 -6.942290196034E+00
   21     7 N    -1.528220068270E-01 -1.558250421496E+00  1.705897354296E+00
   22     7 N    -5.794222552253E+00  1.558250421496E+00 -6.942290196034E+00
   23     7 N     5.794222552293E+00 -2.152294615614E+00 -1.705897354296E+00
   24     7 N     1.528220068270E-01  2.152294615614E+00  6.942290196074E+00
   25     6 C    -2.101564629155E+00  1.726952679540E+00 -5.259995119224E+00
   26     6 C    -3.845479929925E+00 -1.726952679540E+00  3.388192431146E+00
   27     6 C     3.845479929965E+00  1.983592357570E+00  5.259995119224E+00
   28     6 C     2.101564629155E+00 -1.983592357570E+00 -3.388192431106E+00
   29     6 C     2.101564629155E+00 -1.726952679540E+00  5.259995119224E+00
   30     6 C     3.845479929965E+00  1.726952679540E+00 -3.388192431106E+00
   31     6 C    -3.845479929925E+00 -1.983592357570E+00 -5.259995119224E+00
   32     6 C    -2.101564629155E+00  1.983592357570E+00  3.388192431146E+00
   33     6 C    -6.760835483290E-01  1.601343631973E+00 -2.844244963596E+00
   34     6 C    -5.270961010751E+00 -1.601343631973E+00  5.803942586774E+00
   35     6 C     5.270961010791E+00  2.109201405137E+00  2.844244963596E+00
   36     6 C     6.760835483290E-01 -2.109201405137E+00 -5.803942586734E+00
   37     6 C     6.760835483290E-01 -1.601343631973E+00  2.844244963596E+00
   38     6 C     5.270961010791E+00  1.601343631973E+00 -5.803942586734E+00
   39     6 C    -5.270961010751E+00 -2.109201405137E+00 -2.844244963596E+00
   40     6 C    -6.760835483290E-01  2.109201405137E+00  5.803942586774E+00
   41     6 C    -1.933113343191E+00  2.200229268036E+00 -2.895104936602E+00
   42     6 C    -4.013931215889E+00 -2.200229268036E+00  5.753082613768E+00
   43     6 C     4.013931215929E+00  1.510315769074E+00  2.895104936602E+00
   44     6 C     1.933113343191E+00 -1.510315769074E+00 -5.753082613728E+00
   45     6 C     1.933113343191E+00 -2.200229268036E+00  2.895104936602E+00
   46     6 C     4.013931215929E+00  2.200229268036E+00 -5.753082613728E+00
   47     6 C    -4.013931215889E+00 -1.510315769074E+00 -2.895104936602E+00
   48     6 C    -1.933113343191E+00  1.510315769074E+00  5.753082613768E+00
   49     6 C    -2.634576168357E+00  2.260643096375E+00 -4.091390799005E+00
   50     6 C    -3.312468390723E+00 -2.260643096375E+00  4.556796751365E+00
   51     6 C     3.312468390763E+00  1.449901940735E+00  4.091390799005E+00
   52     6 C     2.634576168357E+00 -1.449901940735E+00 -4.556796751325E+00
   53     6 C     2.634576168357E+00 -2.260643096375E+00  4.091390799005E+00
   54     6 C     3.312468390763E+00  2.260643096375E+00 -4.556796751325E+00
   55     6 C    -3.312468390723E+00 -1.449901940735E+00 -4.091390799005E+00
   56     6 C    -2.634576168357E+00  1.449901940735E+00  4.556796751365E+00
   57     6 C     1.013173052417E+00  1.620366457974E+00  5.305189988270E-01
   58     6 C     4.933871506703E+00 -1.620366457974E+00 -8.117668551503E+00
   59     6 C    -4.933871506663E+00  2.090178579136E+00 -5.305189988270E-01
   60     6 C    -1.013173052417E+00 -2.090178579136E+00  8.117668551543E+00
   61     6 C    -1.013173052417E+00 -1.620366457974E+00 -5.305189988270E-01
   62     6 C    -4.933871506663E+00  1.620366457974E+00  8.117668551543E+00
   63     6 C     4.933871506703E+00 -2.090178579136E+00  5.305189988270E-01
   64     6 C     1.013173052417E+00  2.090178579136E+00 -8.117668551503E+00
   65     6 C    -8.656842005370E-01  1.089317126024E+00 -5.198323718407E+00
   66     6 C    -5.081360358543E+00 -1.089317126024E+00  3.449863831963E+00
   67     6 C     5.081360358583E+00  2.621227911086E+00  5.198323718407E+00
   68     6 C     8.656842005370E-01 -2.621227911086E+00 -3.449863831923E+00
   69     6 C     8.656842005370E-01 -1.089317126024E+00  5.198323718407E+00
   70     6 C     5.081360358583E+00  1.089317126024E+00 -3.449863831923E+00
   71     6 C    -5.081360358543E+00 -2.621227911086E+00 -5.198323718407E+00
   72     6 C    -8.656842005370E-01  2.621227911086E+00  3.449863831963E+00
   73     6 C    -1.557152588960E-01  1.748244754788E+00 -4.122183308550E-01
   74     6 C    -5.791329300184E+00 -1.748244754788E+00  8.235969219515E+00
   75     6 C     5.791329300224E+00  1.962300282322E+00  4.122183308550E-01
   76     6 C     1.557152588960E-01 -1.962300282322E+00 -8.235969219475E+00
   77     6 C     1.557152588960E-01 -1.748244754788E+00  4.122183308550E-01
   78     6 C     5.791329300224E+00  1.748244754788E+00 -8.235969219475E+00
   79     6 C    -5.791329300184E+00 -1.962300282322E+00 -4.122183308550E-01
   80     6 C    -1.557152588960E-01  1.962300282322E+00  8.235969219515E+00
   81     6 C    -1.644093530520E-01  1.032825798323E+00 -4.008483263519E+00
   82     6 C    -5.782635206028E+00 -1.032825798323E+00  4.639704286851E+00
   83     6 C     5.782635206068E+00  2.677719238787E+00  4.008483263519E+00
   84     6 C     1.644093530520E-01 -2.677719238787E+00 -4.639704286811E+00
   85     6 C     1.644093530520E-01 -1.032825798323E+00  4.008483263519E+00
   86     6 C     5.782635206068E+00  1.032825798323E+00 -4.639704286811E+00
   87     6 C    -5.782635206028E+00 -2.677719238787E+00 -4.008483263519E+00
   88     6 C    -1.644093530520E-01  2.677719238787E+00  4.639704286851E+00
   89     1 H    -2.209681301994E+00  1.702206960568E+00 -7.185777525666E+00
   90     1 H    -3.737363257086E+00 -1.702206960568E+00  1.462410024704E+00
   91     1 H     3.737363257126E+00  2.008338076542E+00  7.185777525666E+00
   92     1 H     2.209681301994E+00 -2.008338076542E+00 -1.462410024664E+00
   93     1 H     2.209681301994E+00 -1.702206960568E+00  7.185777525666E+00
   94     1 H     3.737363257126E+00  1.702206960568E+00 -1.462410024664E+00
   95     1 H    -3.737363257086E+00 -2.008338076542E+00 -7.185777525666E+00
   96     1 H    -2.209681301994E+00  2.008338076542E+00  1.462410024704E+00
   97     1 H     1.136437820600E+00  1.414489108465E+00 -1.909586437658E+00
   98     1 H     4.810606738520E+00 -1.414489108465E+00  6.738601112712E+00
   99     1 H    -4.810606738480E+00  2.296055928645E+00  1.909586437658E+00
  100     1 H    -1.136437820600E+00 -2.296055928645E+00 -6.738601112672E+00
  101     1 H    -1.136437820600E+00 -1.414489108465E+00  1.909586437658E+00
  102     1 H    -4.810606738480E+00  1.414489108465E+00 -6.738601112672E+00
  103     1 H     4.810606738520E+00 -2.296055928645E+00 -1.909586437658E+00
  104     1 H     1.136437820600E+00  2.296055928645E+00  6.738601112712E+00
  105     1 H    -2.371089457322E+00  2.647010410820E+00 -2.017599851660E+00
  106     1 H    -3.575955101758E+00 -2.647010410820E+00  6.630587698710E+00
  107     1 H     3.575955101798E+00  1.063534626290E+00  2.017599851660E+00
  108     1 H     2.371089457322E+00 -1.063534626290E+00 -6.630587698670E+00
  109     1 H     2.371089457322E+00 -2.647010410820E+00  2.017599851660E+00
  110     1 H     3.575955101798E+00  2.647010410820E+00 -6.630587698670E+00
  111     1 H    -3.575955101758E+00 -1.063534626290E+00 -2.017599851660E+00
  112     1 H    -2.371089457322E+00  1.063534626290E+00  6.630587698710E+00
  113     1 H    -3.598534027628E+00  2.753463528026E+00 -4.114673552561E+00
  114     1 H    -2.348510531452E+00 -2.753463528026E+00  4.533513997809E+00
  115     1 H     2.348510531492E+00  9.570815090840E-01  4.114673552561E+00
  116     1 H     3.598534027628E+00 -9.570815090840E-01 -4.533513997769E+00
  117     1 H     3.598534027628E+00 -2.753463528026E+00  4.114673552561E+00
  118     1 H     2.348510531492E+00  2.753463528026E+00 -4.533513997769E+00
  119     1 H    -2.348510531452E+00 -9.570815090840E-01 -4.114673552561E+00
  120     1 H    -3.598534027628E+00  9.570815090840E-01  4.533513997809E+00
  121     1 H     1.484453164610E+00  2.596465723666E+00  6.612139767220E-01
  122     1 H     4.462591394510E+00 -2.596465723666E+00 -7.986973573608E+00
  123     1 H    -4.462591394470E+00  1.114079313444E+00 -6.612139767220E-01
  124     1 H    -1.484453164610E+00 -1.114079313444E+00  7.986973573648E+00
  125     1 H    -1.484453164610E+00 -2.596465723666E+00 -6.612139767220E-01
  126     1 H    -4.462591394470E+00  2.596465723666E+00  7.986973573648E+00
  127     1 H     4.462591394510E+00 -1.114079313444E+00  6.612139767220E-01
  128     1 H     1.484453164610E+00  1.114079313444E+00 -7.986973573608E+00
  129     1 H     1.773762060560E+00  9.317792211380E-01  1.678785944600E-01
  130     1 H     4.173282498560E+00 -9.317792211380E-01 -8.480308955870E+00
  131     1 H    -4.173282498520E+00  2.778765815972E+00 -1.678785944600E-01
  132     1 H    -1.773762060560E+00 -2.778765815972E+00  8.480308955910E+00
  133     1 H    -1.773762060560E+00 -9.317792211380E-01 -1.678785944600E-01
  134     1 H    -4.173282498520E+00  9.317792211380E-01  8.480308955910E+00
  135     1 H     4.173282498560E+00 -2.778765815972E+00  1.678785944600E-01
  136     1 H     1.773762060560E+00  2.778765815972E+00 -8.480308955870E+00
  137     1 H     6.740610915680E-01  1.279333984789E+00  1.505708218043E+00
  138     1 H     5.272983467552E+00 -1.279333984789E+00 -7.142479332287E+00
  139     1 H    -5.272983467512E+00  2.431211052321E+00 -1.505708218043E+00
  140     1 H    -6.740610915680E-01 -2.431211052321E+00  7.142479332327E+00
  141     1 H    -6.740610915680E-01 -1.279333984789E+00 -1.505708218043E+00
  142     1 H    -5.272983467512E+00  1.279333984789E+00  7.142479332327E+00
  143     1 H     5.272983467552E+00 -2.431211052321E+00  1.505708218043E+00
  144     1 H     6.740610915680E-01  2.431211052321E+00 -7.142479332287E+00
  145     1 H    -4.479014372770E-01  6.166807627930E-01 -6.077154212012E+00
  146     1 H    -5.499143121803E+00 -6.166807627930E-01  2.571033338358E+00
  147     1 H     5.499143121843E+00  3.093864274317E+00  6.077154212012E+00
  148     1 H     4.479014372770E-01 -3.093864274317E+00 -2.571033338318E+00
  149     1 H     4.479014372770E-01 -6.166807627930E-01  6.077154212012E+00
  150     1 H     5.499143121843E+00  6.166807627930E-01 -2.571033338318E+00
  151     1 H    -5.499143121803E+00 -3.093864274317E+00 -6.077154212012E+00
  152     1 H    -4.479014372770E-01  3.093864274317E+00  2.571033338358E+00
  153     1 H     7.969455996130E-01  5.321562186920E-01 -3.996456028102E+00
  154     1 H     5.150098959507E+00 -5.321562186920E-01  4.651731522268E+00
  155     1 H    -5.150098959467E+00  3.178388818418E+00  3.996456028102E+00
  156     1 H    -7.969455996130E-01 -3.178388818418E+00 -4.651731522228E+00
  157     1 H    -7.969455996130E-01 -5.321562186920E-01  3.996456028102E+00
  158     1 H    -5.150098959467E+00  5.321562186920E-01 -4.651731522228E+00
  159     1 H     5.150098959507E+00 -3.178388818418E+00 -3.996456028102E+00
  160     1 H     7.969455996130E-01  3.178388818418E+00  4.651731522268E+00

 *******************************************************************************
 STARTING BASIS SET HANDLING 
 *******************************************************************************

 Loading internal basis set: DEF2-MSVP           

 Please cite in your publication:
 Fully Optimized Contracted Gaussian Basis Sets for Atoms Li to Kr. A. Schfer, H. Horn and R. Ahlrichs; J. Chem. Phys. 97, 2571 (1992).                                                                                                                         
 S. Grimme, J. G. Brandenburg, C. Bannwarth, and A. Hansen, J. Chem. Phys., 143, 054107 (2015).                                                                                                                                                                  

 *******************************************************************************
 LOCAL ATOMIC FUNCTIONS BASIS SET
 *******************************************************************************
   ATOM   X(AU)   Y(AU)   Z(AU)  N. TYPE  EXPONENT  S COEF   P COEF   D/F/G COEF
 *******************************************************************************
   1 O   -5.286   3.463 -12.115
                                  1 S  
                                         6.773E+03 1.727E-03 0.000E+00 0.000E+00
                                         1.017E+03 1.325E-02 0.000E+00 0.000E+00
                                         2.313E+02 6.603E-02 0.000E+00 0.000E+00
                                         6.501E+01 2.353E-01 0.000E+00 0.000E+00
                                         2.050E+01 5.498E-01 0.000E+00 0.000E+00
                                  2 S  
                                         6.716E+00 1.000E+00 0.000E+00 0.000E+00
                                  3 S  
                                         1.147E+00 1.000E+00 0.000E+00 0.000E+00
                                  4 S  
                                         3.342E-01 1.000E+00 0.000E+00 0.000E+00
                           5-     7 P  
                                         1.769E+01 0.000E+00 4.359E-02 0.000E+00
                                         3.854E+00 0.000E+00 2.318E-01 0.000E+00
                                         1.047E+00 0.000E+00 5.146E-01 0.000E+00
                           8-    10 P  
                                         2.759E-01 0.000E+00 1.000E+00 0.000E+00
                          11-    15 D  
                                         8.000E-01 0.000E+00 0.000E+00 1.000E+00
   2 O   -5.952  -3.463   4.228
   3 O    5.952   3.549  12.115
   4 O    5.286  -3.549  -4.228
   5 O    5.286  -3.463  12.115
   6 O    5.952   3.463  -4.228
   7 O   -5.952  -3.549 -12.115
   8 O   -5.286   3.549   4.228
   9 O   -2.436   3.833  -0.041
  10 O   -8.803  -3.833 -16.384
  11 O    8.803   3.179   0.041
  12 O    2.436  -3.179  16.384
  13 O    2.436  -3.833   0.041
  14 O    8.803   3.833  16.384
  15 O   -8.803  -3.179  -0.041
  16 O   -2.436   3.179 -16.384
  17 N    0.289   2.945  -3.224
                                241 S  
                                         5.072E+03 1.707E-03 0.000E+00 0.000E+00
                                         7.614E+02 1.309E-02 0.000E+00 0.000E+00
                                         1.732E+02 6.510E-02 0.000E+00 0.000E+00
                                         4.867E+01 2.305E-01 0.000E+00 0.000E+00
                                         1.533E+01 5.330E-01 0.000E+00 0.000E+00
                                242 S  
                                         5.019E+00 1.000E+00 0.000E+00 0.000E+00
                                243 S  
                                         8.355E-01 1.000E+00 0.000E+00 0.000E+00
                                244 S  
                                         2.463E-01 1.000E+00 0.000E+00 0.000E+00
                         245-   247 P  
                                         1.355E+01 0.000E+00 4.063E-02 0.000E+00
                                         2.918E+00 0.000E+00 2.209E-01 0.000E+00
                                         7.983E-01 0.000E+00 5.186E-01 0.000E+00
                         248-   250 P  
                                         2.190E-01 0.000E+00 1.000E+00 0.000E+00
                         251-   255 D  
                                         8.000E-01 0.000E+00 0.000E+00 1.000E+00
  18 N   10.949  -2.945  13.119
  19 N  -10.949   4.067   3.224
  20 N   -0.289  -4.067 -13.119
  21 N   -0.289  -2.945   3.224
  22 N  -10.949   2.945 -13.119
  23 N   10.949  -4.067  -3.224
  24 N    0.289   4.067  13.119
  25 C   -3.971   3.263  -9.940
                                361 S  
                                         3.624E+03 1.634E-03 0.000E+00 0.000E+00
                                         5.440E+02 1.252E-02 0.000E+00 0.000E+00
                                         1.237E+02 6.211E-02 0.000E+00 0.000E+00
                                         3.476E+01 2.182E-01 0.000E+00 0.000E+00
                                         1.093E+01 4.980E-01 0.000E+00 0.000E+00
                                362 S  
                                         3.574E+00 1.000E+00 0.000E+00 0.000E+00
                                363 S  
                                         5.748E-01 1.000E+00 0.000E+00 0.000E+00
                                364 S  
                                         1.730E-01 1.000E+00 0.000E+00 0.000E+00
                         365-   367 P  
                                         9.443E+00 0.000E+00 3.790E-02 0.000E+00
                                         2.002E+00 0.000E+00 2.082E-01 0.000E+00
                                         5.463E-01 0.000E+00 5.047E-01 0.000E+00
                         368-   370 P  
                                         1.520E-01 0.000E+00 1.000E+00 0.000E+00
                         371-   375 D  
                                         8.000E-01 0.000E+00 0.000E+00 1.000E+00
  26 C   -7.267  -3.263   6.403
  27 C    7.267   3.748   9.940
  28 C    3.971  -3.748  -6.403
  29 C    3.971  -3.263   9.940
  30 C    7.267   3.263  -6.403
  31 C   -7.267  -3.748  -9.940
  32 C   -3.971   3.748   6.403
  33 C   -1.278   3.026  -5.375
  34 C   -9.961  -3.026  10.968
  35 C    9.961   3.986   5.375
  36 C    1.278  -3.986 -10.968
  37 C    1.278  -3.026   5.375
  38 C    9.961   3.026 -10.968
  39 C   -9.961  -3.986  -5.375
  40 C   -1.278   3.986  10.968
  41 C   -3.653   4.158  -5.471
  42 C   -7.585  -4.158  10.872
  43 C    7.585   2.854   5.471
  44 C    3.653  -2.854 -10.872
  45 C    3.653  -4.158   5.471
  46 C    7.585   4.158 -10.872
  47 C   -7.585  -2.854  -5.471
  48 C   -3.653   2.854  10.872
  49 C   -4.979   4.272  -7.732
  50 C   -6.260  -4.272   8.611
  51 C    6.260   2.740   7.732
  52 C    4.979  -2.740  -8.611
  53 C    4.979  -4.272   7.732
  54 C    6.260   4.272  -8.611
  55 C   -6.260  -2.740  -7.732
  56 C   -4.979   2.740   8.611
  57 C    1.915   3.062   1.003
  58 C    9.324  -3.062 -15.340
  59 C   -9.324   3.950  -1.003
  60 C   -1.915  -3.950  15.340
  61 C   -1.915  -3.062  -1.003
  62 C   -9.324   3.062  15.340
  63 C    9.324  -3.950   1.003
  64 C    1.915   3.950 -15.340
  65 C   -1.636   2.059  -9.823
  66 C   -9.602  -2.059   6.519
  67 C    9.602   4.953   9.823
  68 C    1.636  -4.953  -6.519
  69 C    1.636  -2.059   9.823
  70 C    9.602   2.059  -6.519
  71 C   -9.602  -4.953  -9.823
  72 C   -1.636   4.953   6.519
  73 C   -0.294   3.304  -0.779
  74 C  -10.944  -3.304  15.564
  75 C   10.944   3.708   0.779
  76 C    0.294  -3.708 -15.564
  77 C    0.294  -3.304   0.779
  78 C   10.944   3.304 -15.564
  79 C  -10.944  -3.708  -0.779
  80 C   -0.294   3.708  15.564
  81 C   -0.311   1.952  -7.575
  82 C  -10.928  -1.952   8.768
  83 C   10.928   5.060   7.575
  84 C    0.311  -5.060  -8.768
  85 C    0.311  -1.952   7.575
  86 C   10.928   1.952  -8.768
  87 C  -10.928  -5.060  -7.575
  88 C   -0.311   5.060   8.768
  89 H   -4.176   3.217 -13.579
                               1321 S  
                                         1.874E+01 1.968E-02 0.000E+00 0.000E+00
                                         2.826E+00 1.380E-01 0.000E+00 0.000E+00
                                         6.401E-01 4.783E-01 0.000E+00 0.000E+00
                               1322 S  
                                         1.756E-01 1.000E+00 0.000E+00 0.000E+00
  90 H   -7.063  -3.217   2.764
  91 H    7.063   3.795  13.579
  92 H    4.176  -3.795  -2.764
  93 H    4.176  -3.217  13.579
  94 H    7.063   3.217  -2.764
  95 H   -7.063  -3.795 -13.579
  96 H   -4.176   3.795   2.764
  97 H    2.148   2.673  -3.609
  98 H    9.091  -2.673  12.734
  99 H   -9.091   4.339   3.609
 100 H   -2.148  -4.339 -12.734
 101 H   -2.148  -2.673   3.609
 102 H   -9.091   2.673 -12.734
 103 H    9.091  -4.339  -3.609
 104 H    2.148   4.339  12.734
 105 H   -4.481   5.002  -3.813
 106 H   -6.758  -5.002  12.530
 107 H    6.758   2.010   3.813
 108 H    4.481  -2.010 -12.530
 109 H    4.481  -5.002   3.813
 110 H    6.758   5.002 -12.530
 111 H   -6.758  -2.010  -3.813
 112 H   -4.481   2.010  12.530
 113 H   -6.800   5.203  -7.776
 114 H   -4.438  -5.203   8.567
 115 H    4.438   1.809   7.776
 116 H    6.800  -1.809  -8.567
 117 H    6.800  -5.203   7.776
 118 H    4.438   5.203  -8.567
 119 H   -4.438  -1.809  -7.776
 120 H   -6.800   1.809   8.567
 121 H    2.805   4.907   1.250
 122 H    8.433  -4.907 -15.093
 123 H   -8.433   2.105  -1.250
 124 H   -2.805  -2.105  15.093
 125 H   -2.805  -4.907  -1.250
 126 H   -8.433   4.907  15.093
 127 H    8.433  -2.105   1.250
 128 H    2.805   2.105 -15.093
 129 H    3.352   1.761   0.317
 130 H    7.886  -1.761 -16.025
 131 H   -7.886   5.251  -0.317
 132 H   -3.352  -5.251  16.025
 133 H   -3.352  -1.761  -0.317
 134 H   -7.886   1.761  16.025
 135 H    7.886  -5.251   0.317
 136 H    3.352   5.251 -16.025
 137 H    1.274   2.418   2.845
 138 H    9.964  -2.418 -13.497
 139 H   -9.964   4.594  -2.845
 140 H   -1.274  -4.594  13.497
 141 H   -1.274  -2.418  -2.845
 142 H   -9.964   2.418  13.497
 143 H    9.964  -4.594   2.845
 144 H    1.274   4.594 -13.497
 145 H   -0.846   1.165 -11.484
 146 H  -10.392  -1.165   4.859
 147 H   10.392   5.847  11.484
 148 H    0.846  -5.847  -4.859
 149 H    0.846  -1.165  11.484
 150 H   10.392   1.165  -4.859
 151 H  -10.392  -5.847 -11.484
 152 H   -0.846   5.847   4.859
 153 H    1.506   1.006  -7.552
 154 H    9.732  -1.006   8.790
 155 H   -9.732   6.006   7.552
 156 H   -1.506  -6.006  -8.790
 157 H   -1.506  -1.006   7.552
 158 H   -9.732   1.006  -8.790
 159 H    9.732  -6.006  -7.552
 160 H    1.506   6.006   8.790

 *******************************************************************************
 FINISHED BASIS SET HANDLING 
 *******************************************************************************

 INFORMATION **** SET_MPP **** PCRYSTAL CALCULATION
 INFORMATION **** READM2 **** NEW DEFAULT: FOCK/KS MATRIX MIXING SET TO 30 %
 INFORMATION **** READM2 **** NEW DEFAULT: FULL DIRECT SCF MODE
 INFORMATION **** READM2 **** NEW DEFAULT: COULOMB BIPOLAR BUFFER SET TO 32 Mb
 INFORMATION **** READM2 **** NEW DEFAULT: EXCHANGE BIPOLAR BUFFER SET TO 32 Mb

 *******************************************************************************
 NEW DEFAULT: DFT INTEGRATION GRID INCREASED TO XLGRID
 NEW DEFAULT: DIIS ACCELERATOR ACTIVE
 USE KEYWORD NODIIS TO TURN IT OFF
 *******************************************************************************

 INFORMATION **** RDDFTP **** PBEh-3c calculation
 INFORMATION **** RDDFTP **** PBEh hybrid functional combined with D3 and gCP

PLEASE CITE:
(1) PBEh-3c Reference
 S. Grimme, J. G. Brandenburg, C. Bannwarth, and A. Hansen, 
 J. Chem. Phys. 143, 054107 (2015)
(2) DFT-D3 Reference
 S. Grimme, J. Antony, S. Ehrlich, and H. Krieg, J. Chem. Phys. 132, 154104 (2010)
(3) gCP Reference
 H. Kruse and S. Grimme J. Chem. Phys, 136, 154101 (2012)
 J. G. Brandenburg, M. Alessio, B. Civalleri, M. F. Peintinger
 T. Bredow, and S. Grimme, J. Phys. Chem. A, 117, 9282 (2013) 

 WARNING **** RDDFTP **** PBEh-3c has to be combined with def2-mSVP basis set
 WARNING **** RDDFTP **** Note: Harmonic frequencies are scaled by 0.95
 WARNING **** RDDFTP **** as recommended in original publication
 INFORMATION **** TOLDEE **** SCF TOL ON TOTAL ENERGY SET TO           9
 INFORMATION **** TOLINTEG **** COULOMB AND EXCHANGE SERIES TOLERANCES MODIFIED
 INFORMATION **** MAXCYCLE **** MAX NUMBER OF SCF CYCLES SET TO          30
 WARNING **** READM2 **** PROBABLE LOSS IN FREQCALC ACCURACY; SCF TOL LT          10
 *******************************************************************************
 N. OF ATOMS PER CELL       160  COULOMB OVERLAP TOL         (T1) 10**   -8
 NUMBER OF SHELLS           760  COULOMB PENETRATION TOL     (T2) 10**   -8
 NUMBER OF AO              1464  EXCHANGE OVERLAP TOL        (T3) 10**   -8
 N. OF ELECTRONS PER CELL   640  EXCHANGE PSEUDO OVP (F(G))  (T4) 10**   -8
 CORE ELECTRONS PER CELL    176  EXCHANGE PSEUDO OVP (P(G))  (T5) 10**  -24
 N. OF SYMMETRY OPERATORS     8  POLE ORDER IN MONO ZONE                  4
 *******************************************************************************
 TYPE OF CALCULATION :  RESTRICTED CLOSED SHELL
 KOHN-SHAM HAMILTONIAN

 (EXCHANGE)[CORRELATION] FUNCTIONAL:(PBEh-3c)[PBEh-3c]


 HYBRID EXCHANGE - PERCENTAGE OF FOCK EXCHANGE    42.0000

 CAPPA:IS1  4;IS2  4;IS3  2; K PTS MONK NET  18; SYMMOPS:K SPACE   8;G SPACE   8

 *******************************************************************************
 MAX NUMBER OF SCF CYCLES      30  CONVERGENCE ON DELTAP        10**-19
 WEIGHT OF F(I) IN F(I+1)      50% CONVERGENCE ON ENERGY        10**- 9
 SHRINK. FACT.(MONKH.)    4  4  2  NUMBER OF K POINTS IN THE IBZ     18
 SHRINKING FACTOR(GILAT NET)    4  NUMBER OF K POINTS(GILAT NET)     18
 *******************************************************************************
 *** K POINTS COORDINATES (OBLIQUE COORDINATES IN UNITS OF IS =  4)
   1-R(  0  0  0)   2-C(  1  0  0)   3-R(  2  0  0)   4-C(  0  1  0)
   5-C(  1  1  0)   6-C(  2  1  0)   7-R(  0  2  0)   8-C(  1  2  0)
   9-R(  2  2  0)  10-R(  0  0  1)  11-C(  1  0  1)  12-R(  2  0  1)
  13-C(  0  1  1)  14-C(  1  1  1)  15-C(  2  1  1)  16-R(  0  2  1)
  17-C(  1  2  1)  18-R(  2  2  1)

 DIRECT LATTICE VECTORS COMPON. (A.U.)     RECIP. LATTICE VECTORS COMPON. (A.U.) 
        X            Y            Z              X            Y            Z
   22.4765710    0.0000000    0.0000000      0.2795438    0.0000000    0.0000000
    0.0000000   14.0238279    0.0000000      0.0000000    0.4480364    0.0000000
    0.0000000    0.0000000   32.6854120      0.0000000    0.0000000    0.1922321

 DISK SPACE FOR EIGENVECTORS (FTN 10)    60012288 REALS

 SYMMETRY ADAPTION OF THE BLOCH FUNCTIONS ENABLED
 TTTTTTTTTTTTTTTTTTTTTTTTTTTTTT gordsh1     TELAPSE        4.23 TCPU        1.90

 MATRIX SIZE: P(G) 4524904, F(G)  422312, P(G) IRR  287217, F(G) IRR   53474
 MAX G-VECTOR INDEX FOR 1- AND 2-ELECTRON INTEGRALS  75

 TTTTTTTTTTTTTTTTTTTTTTTTTTTTTT INPUT       TELAPSE        4.42 TCPU        2.08

 NEIGHBORS OF THE NON-EQUIVALENT ATOMS

 N = NUMBER OF NEIGHBORS AT DISTANCE R
    ATOM  N     R/ANG      R/AU   NEIGHBORS (ATOM LABELS AND CELL INDICES)
   1 O    1     0.9811     1.8541   89 H    0 0 0
   1 O    1     1.3491     2.5494   25 C    0 0 0
   1 O    1     2.0821     3.9347  102 H    0 0 0
   1 O    1     2.3644     4.4680   49 C    0 0 0
   1 O    1     2.3988     4.5330   65 C    0 0 0
   1 O    1     2.6006     4.9144  113 H    0 0 0

   9 O    1     1.2307     2.3257   73 C    0 0 0
   9 O    1     1.7469     3.3011   96 H    0 0 0
   9 O    1     2.2660     4.2822   17 N    0 0 0
   9 O    1     2.3530     4.4466  105 H    0 0 0
   9 O    1     2.4023     4.5396   57 C    0 0 0
   9 O    1     2.5976     4.9087  137 H    0 0 0

  17 N    1     1.0147     1.9175   97 H    0 0 0
  17 N    1     1.3435     2.5388   73 C    0 0 0
  17 N    1     1.4088     2.6623   33 C    0 0 0
  17 N    1     2.2660     4.2822    9 O    0 0 0
  17 N    1     2.3830     4.5032   81 C    0 0 0
  17 N    1     2.3970     4.5297   57 C    0 0 0

  25 C    1     1.3491     2.5494    1 O    0 0 0
  25 C    1     1.3909     2.6284   49 C    0 0 0
  25 C    1     1.3920     2.6306   65 C    0 0 0
  25 C    1     1.9290     3.6452   89 H    0 0 0
  25 C    1     2.1463     4.0558  113 H    0 0 0
  25 C    1     2.1529     4.0684  145 H    0 0 0

  33 C    1     1.3930     2.6324   81 C    0 0 0
  33 C    1     1.3933     2.6330   41 C    0 0 0
  33 C    1     1.4088     2.6623   17 N    0 0 0
  33 C    1     2.0479     3.8699   97 H    0 0 0
  33 C    1     2.1542     4.0708  153 H    0 0 0
  33 C    1     2.1563     4.0749  105 H    0 0 0

  41 C    1     1.0777     2.0366  105 H    0 0 0
  41 C    1     1.3881     2.6231   49 C    0 0 0
  41 C    1     1.3933     2.6330   33 C    0 0 0
  41 C    1     2.1371     4.0385  113 H    0 0 0
  41 C    1     2.3939     4.5238   81 C    0 0 0
  41 C    1     2.4177     4.5687   25 C    0 0 0

  49 C    1     1.0829     2.0463  113 H    0 0 0
  49 C    1     1.3881     2.6231   41 C    0 0 0
  49 C    1     1.3909     2.6284   25 C    0 0 0
  49 C    1     2.1259     4.0173  105 H    0 0 0
  49 C    1     2.3644     4.4680    1 O    0 0 0
  49 C    1     2.3930     4.5220   65 C    0 0 0

  57 C    1     1.0873     2.0548  137 H    0 0 0
  57 C    1     1.0882     2.0564  129 H    0 0 0
  57 C    1     1.0918     2.0631  121 H    0 0 0
  57 C    1     1.5071     2.8480   73 C    0 0 0
  57 C    1     2.3970     4.5297   17 N    0 0 0
  57 C    1     2.4023     4.5396    9 O    0 0 0

  65 C    1     1.0818     2.0443  145 H    0 0 0
  65 C    1     1.3823     2.6121   81 C    0 0 0
  65 C    1     1.3920     2.6306   25 C    0 0 0
  65 C    1     2.1259     4.0173  153 H    0 0 0
  65 C    1     2.3930     4.5220   49 C    0 0 0
  65 C    1     2.3988     4.5330    1 O    0 0 0

  73 C    1     1.2307     2.3257    9 O    0 0 0
  73 C    1     1.3435     2.5388   17 N    0 0 0
  73 C    1     1.5071     2.8480   57 C    0 0 0
  73 C    1     2.0058     3.7904   97 H    0 0 0
  73 C    1     2.1359     4.0362  121 H    0 0 0
  73 C    1     2.1417     4.0472  137 H    0 0 0

  81 C    1     1.0840     2.0484  153 H    0 0 0
  81 C    1     1.3823     2.6121   65 C    0 0 0
  81 C    1     1.3930     2.6324   33 C    0 0 0
  81 C    1     2.1291     4.0234  145 H    0 0 0
  81 C    1     2.3830     4.5032   17 N    0 0 0
  81 C    1     2.3939     4.5238   41 C    0 0 0

  89 H    1     0.9811     1.8541    1 O    0 0 0
  89 H    1     1.7469     3.3011   16 O    0 0 0
  89 H    1     1.9290     3.6452   25 C    0 0 0
  89 H    1     2.3476     4.4363  145 H    0 0 0
  89 H    1     2.4763     4.6795   65 C    0 0 0
  89 H    1     2.6547     5.0167  102 H    0 0 0

  97 H    1     1.0147     1.9175   17 N    0 0 0
  97 H    1     2.0058     3.7904   73 C    0 0 0
  97 H    1     2.0479     3.8699   33 C    0 0 0
  97 H    1     2.0821     3.9347    6 O    0 0 0
  97 H    1     2.2260     4.2065  129 H    0 0 0
  97 H    1     2.2910     4.3294  153 H    0 0 0

 105 H    1     1.0777     2.0366   41 C    0 0 0
 105 H    1     2.1259     4.0173   49 C    0 0 0
 105 H    1     2.1563     4.0749   33 C    0 0 0
 105 H    1     2.3530     4.4466    9 O    0 0 0
 105 H    1     2.4322     4.5962  113 H    0 0 0
 105 H    1     2.5859     4.8866  131 H    0 0 0

 113 H    1     1.0829     2.0463   49 C    0 0 0
 113 H    1     2.1371     4.0385   41 C    0 0 0
 113 H    1     2.1463     4.0558   25 C    0 0 0
 113 H    1     2.4322     4.5962  105 H    0 0 0
 113 H    1     2.6006     4.9144    1 O    0 0 0
 113 H    1     2.7497     5.1962   71 C    0 1 0

 121 H    1     1.0918     2.0631   57 C    0 0 0
 121 H    1     1.7602     3.3263  129 H    0 0 0
 121 H    1     1.7620     3.3297  137 H    0 0 0
 121 H    1     2.1359     4.0362   73 C    0 0 0
 121 H    1     2.7144     5.1295  109 H    0 1 0
 121 H    1     2.7620     5.2195  152 H    0 0 0

 129 H    1     1.0882     2.0564   57 C    0 0 0
 129 H    1     1.7602     3.3263  121 H    0 0 0
 129 H    1     1.7663     3.3379  137 H    0 0 0
 129 H    1     2.1739     4.1081   73 C    0 0 0
 129 H    1     2.2260     4.2065   97 H    0 0 0
 129 H    1     2.5556     4.8293   17 N    0 0 0

 137 H    1     1.0873     2.0548   57 C    0 0 0
 137 H    1     1.7620     3.3297  121 H    0 0 0
 137 H    1     1.7663     3.3379  129 H    0 0 0
 137 H    1     2.1417     4.0472   73 C    0 0 0
 137 H    1     2.3846     4.5062  152 H    0 0 0
[...]
Note: The following floating-point exceptions are signalling: IEEE_UNDERFLOW_FLAG IEEE_DENORMAL
Note: The following floating-point exceptions are signalling: IEEE_UNDERFLOW_FLAG IEEE_DENORMAL
Note: The following floating-point exceptions are signalling: IEEE_UNDERFLOW_FLAG IEEE_DENORMAL
Note: The following floating-point exceptions are signalling: IEEE_UNDERFLOW_FLAG IEEE_DENORMAL
Note: The following floating-point exceptions are signalling: IEEE_UNDERFLOW_FLAG IEEE_DENORMAL
Note: The following floating-point exceptions are signalling: IEEE_UNDERFLOW_FLAG IEEE_DENORMAL
Note: The following floating-point exceptions are signalling: IEEE_UNDERFLOW_FLAG IEEE_DENORMAL
Note: The following floating-point exceptions are signalling: IEEE_UNDERFLOW_FLAG IEEE_DENORMAL
Note: The following floating-point exceptions are signalling: IEEE_UNDERFLOW_FLAG IEEE_DENORMAL
Note: The following floating-point exceptions are signalling: IEEE_UNDERFLOW_FLAG IEEE_DENORMAL
Note: The following floating-point exceptions are signalling: IEEE_UNDERFLOW_FLAG IEEE_DENORMAL
Note: The following floating-point exceptions are signalling: IEEE_UNDERFLOW_FLAG IEEE_DENORMAL
Note: The following floating-point exceptions are signalling: IEEE_UNDERFLOW_FLAG IEEE_DENORMAL
Note: The following floating-point exceptions are signalling: IEEE_UNDERFLOW_FLAG IEEE_DENORMAL
Note: The following floating-point exceptions are signalling: IEEE_UNDERFLOW_FLAG IEEE_DENORMAL
Note: The following floating-point exceptions are signalling: IEEE_UNDERFLOW_FLAG IEEE_DENORMAL
Note: The following floating-point exceptions are signalling: IEEE_UNDERFLOW_FLAG IEEE_DENORMAL
Note: The following floating-point exceptions are signalling: IEEE_UNDERFLOW_FLAG IEEE_DENORMAL
Note: The following floating-point exceptions are signalling: IEEE_UNDERFLOW_FLAG IEEE_DENORMAL
Note: The following floating-point exceptions are signalling: IEEE_UNDERFLOW_FLAG IEEE_DENORMAL
Note: The following floating-point exceptions are signalling: IEEE_UNDERFLOW_FLAG IEEE_DENORMAL
Note: The following floating-point exceptions are signalling: IEEE_UNDERFLOW_FLAG IEEE_DENORMAL
Note: The following floating-point exceptions are signalling: IEEE_UNDERFLOW_FLAG IEEE_DENORMAL
Note: The following floating-point exceptions are signalling: IEEE_UNDERFLOW_FLAG IEEE_DENORMAL
Note: The following floating-point exceptions are signalling: IEEE_UNDERFLOW_FLAG IEEE_DENORMAL
Note: The following floating-point exceptions are signalling: IEEE_UNDERFLOW_FLAG IEEE_DENORMAL
Note: The following floating-point exceptions are signalling: IEEE_UNDERFLOW_FLAG IEEE_DENORMAL
Note: The following floating-point exceptions are signalling: IEEE_UNDERFLOW_FLAG IEEE_DENORMAL
Note: The following floating-point exceptions are signalling: IEEE_UNDERFLOW_FLAG IEEE_DENORMAL
Note: The following floating-point exceptions are signalling: IEEE_UNDERFLOW_FLAG IEEE_DENORMAL
Note: The following floating-point exceptions are signalling: IEEE_UNDERFLOW_FLAG IEEE_DENORMAL
Note: The following floating-point exceptions are signalling: IEEE_UNDERFLOW_FLAG IEEE_DENORMAL
Note: The following floating-point exceptions are signalling: IEEE_UNDERFLOW_FLAG IEEE_DENORMAL
Note: The following floating-point exceptions are signalling: IEEE_UNDERFLOW_FLAG IEEE_DENORMAL
Note: The following floating-point exceptions are signalling: IEEE_UNDERFLOW_FLAG IEEE_DENORMAL
Note: The following floating-point exceptions are signalling: IEEE_UNDERFLOW_FLAG IEEE_DENORMAL
Note: The following floating-point exceptions are signalling: IEEE_UNDERFLOW_FLAG IEEE_DENORMAL
Note: The following floating-point exceptions are signalling: IEEE_UNDERFLOW_FLAG IEEE_DENORMAL
Note: The following floating-point exceptions are signalling: IEEE_UNDERFLOW_FLAG IEEE_DENORMAL
Note: The following floating-point exceptions are signalling: IEEE_UNDERFLOW_FLAG IEEE_DENORMAL
Note: The following floating-point exceptions are signalling: IEEE_UNDERFLOW_FLAG IEEE_DENORMAL
Note: The following floating-point exceptions are signalling: IEEE_UNDERFLOW_FLAG IEEE_DENORMAL
Note: The following floating-point exceptions are signalling: IEEE_UNDERFLOW_FLAG IEEE_DENORMAL
Note: The following floating-point exceptions are signalling: IEEE_UNDERFLOW_FLAG IEEE_DENORMAL
Note: The following floating-point exceptions are signalling: IEEE_UNDERFLOW_FLAG IEEE_DENORMAL
Note: The following floating-point exceptions are signalling: IEEE_UNDERFLOW_FLAG IEEE_DENORMAL
Note: The following floating-point exceptions are signalling: IEEE_UNDERFLOW_FLAG IEEE_DENORMAL
Note: The following floating-point exceptions are signalling: IEEE_UNDERFLOW_FLAG IEEE_DENORMAL
Note: The following floating-point exceptions are signalling: IEEE_UNDERFLOW_FLAG IEEE_DENORMAL
Note: The following floating-point exceptions are signalling: IEEE_UNDERFLOW_FLAG IEEE_DENORMAL
Note: The following floating-point exceptions are signalling: IEEE_UNDERFLOW_FLAG IEEE_DENORMAL
Note: The following floating-point exceptions are signalling: IEEE_UNDERFLOW_FLAG IEEE_DENORMAL
Note: The following floating-point exceptions are signalling: IEEE_UNDERFLOW_FLAG IEEE_DENORMAL
Note: The following floating-point exceptions are signalling: IEEE_UNDERFLOW_FLAG IEEE_DENORMAL
Note: The following floating-point exceptions are signalling: IEEE_UNDERFLOW_FLAG IEEE_DENORMAL
Note: The following floating-point exceptions are signalling: IEEE_UNDERFLOW_FLAG IEEE_DENORMAL
Note: The following floating-point exceptions are signalling: IEEE_UNDERFLOW_FLAG IEEE_DENORMAL
Note: The following floating-point exceptions are signalling: IEEE_UNDERFLOW_FLAG IEEE_DENORMAL
Note: The following floating-point exceptions are signalling: IEEE_UNDERFLOW_FLAG IEEE_DENORMAL
Note: The following floating-point exceptions are signalling: IEEE_UNDERFLOW_FLAG IEEE_DENORMAL
Note: The following floating-point exceptions are signalling: IEEE_UNDERFLOW_FLAG IEEE_DENORMAL
Note: The following floating-point exceptions are signalling: IEEE_UNDERFLOW_FLAG IEEE_DENORMAL
Note: The following floating-point exceptions are signalling: IEEE_UNDERFLOW_FLAG IEEE_DENORMAL
Note: The following floating-point exceptions are signalling: IEEE_UNDERFLOW_FLAG IEEE_DENORMAL
Note: The following floating-point exceptions are signalling: IEEE_UNDERFLOW_FLAG IEEE_DENORMAL
Note: The following floating-point exceptions are signalling: IEEE_UNDERFLOW_FLAG IEEE_DENORMAL
Note: The following floating-point exceptions are signalling: IEEE_UNDERFLOW_FLAG IEEE_DENORMAL
Note: The following floating-point exceptions are signalling: IEEE_UNDERFLOW_FLAG IEEE_DENORMAL
Note: The following floating-point exceptions are signalling: IEEE_UNDERFLOW_FLAG IEEE_DENORMAL
Note: The following floating-point exceptions are signalling: IEEE_UNDERFLOW_FLAG IEEE_DENORMAL
Note: The following floating-point exceptions are signalling: IEEE_UNDERFLOW_FLAG IEEE_DENORMAL
Note: The following floating-point exceptions are signalling: IEEE_UNDERFLOW_FLAG IEEE_DENORMAL
Note: The following floating-point exceptions are signalling: IEEE_UNDERFLOW_FLAG IEEE_DENORMAL
Note: The following floating-point exceptions are signalling: IEEE_UNDERFLOW_FLAG IEEE_DENORMAL
Note: The following floating-point exceptions are signalling: IEEE_UNDERFLOW_FLAG IEEE_DENORMAL
Note: The following floating-point exceptions are signalling: IEEE_UNDERFLOW_FLAG IEEE_DENORMAL
Note: The following floating-point exceptions are signalling: IEEE_UNDERFLOW_FLAG IEEE_DENORMAL
Note: The following floating-point exceptions are signalling: IEEE_UNDERFLOW_FLAG IEEE_DENORMAL
Note: The following floating-point exceptions are signalling: IEEE_UNDERFLOW_FLAG IEEE_DENORMAL
Note: The following floating-point exceptions are signalling: IEEE_UNDERFLOW_FLAG IEEE_DENORMAL
Note: The following floating-point exceptions are signalling: IEEE_UNDERFLOW_FLAG IEEE_DENORMAL
Note: The following floating-point exceptions are signalling: IEEE_UNDERFLOW_FLAG IEEE_DENORMAL
Note: The following floating-point exceptions are signalling: IEEE_UNDERFLOW_FLAG IEEE_DENORMAL
Note: The following floating-point exceptions are signalling: IEEE_UNDERFLOW_FLAG IEEE_DENORMAL
Note: The following floating-point exceptions are signalling: IEEE_UNDERFLOW_FLAG IEEE_DENORMAL
Note: The following floating-point exceptions are signalling: IEEE_UNDERFLOW_FLAG IEEE_DENORMAL
Note: The following floating-point exceptions are signalling: IEEE_UNDERFLOW_FLAG IEEE_DENORMAL
Note: The following floating-point exceptions are signalling: IEEE_UNDERFLOW_FLAG IEEE_DENORMAL
Note: The following floating-point exceptions are signalling: IEEE_UNDERFLOW_FLAG IEEE_DENORMAL
Note: The following floating-point exceptions are signalling: IEEE_UNDERFLOW_FLAG IEEE_DENORMAL
Note: The following floating-point exceptions are signalling: IEEE_UNDERFLOW_FLAG IEEE_DENORMAL
Note: The following floating-point exceptions are signalling: IEEE_UNDERFLOW_FLAG IEEE_DENORMAL
Note: The following floating-point exceptions are signalling: IEEE_UNDERFLOW_FLAG IEEE_DENORMAL
Note: The following floating-point exceptions are signalling: IEEE_UNDERFLOW_FLAG IEEE_DENORMAL
Note: The following floating-point exceptions are signalling: IEEE_UNDERFLOW_FLAG IEEE_DENORMAL
Note: The following floating-point exceptions are signalling: IEEE_UNDERFLOW_FLAG IEEE_DENORMAL
Note: The following floating-point exceptions are signalling: IEEE_UNDERFLOW_FLAG IEEE_DENORMAL
Note: The following floating-point exceptions are signalling: IEEE_UNDERFLOW_FLAG IEEE_DENORMAL
Note: The following floating-point exceptions are signalling: IEEE_UNDERFLOW_FLAG IEEE_DENORMAL
Note: The following floating-point exceptions are signalling: IEEE_UNDERFLOW_FLAG IEEE_DENORMAL
Note: The following floating-point exceptions are signalling: IEEE_UNDERFLOW_FLAG IEEE_DENORMAL
Note: The following floating-point exceptions are signalling: IEEE_UNDERFLOW_FLAG IEEE_DENORMAL
Note: The following floating-point exceptions are signalling: IEEE_UNDERFLOW_FLAG IEEE_DENORMAL
Note: The following floating-point exceptions are signalling: IEEE_UNDERFLOW_FLAG IEEE_DENORMAL
Note: The following floating-point exceptions are signalling: IEEE_UNDERFLOW_FLAG IEEE_DENORMAL
Note: The following floating-point exceptions are signalling: IEEE_UNDERFLOW_FLAG IEEE_DENORMAL
Note: The following floating-point exceptions are signalling: IEEE_UNDERFLOW_FLAG IEEE_DENORMAL
Note: The following floating-point exceptions are signalling: IEEE_UNDERFLOW_FLAG IEEE_DENORMAL
Note: The following floating-point exceptions are signalling: IEEE_UNDERFLOW_FLAG IEEE_DENORMAL
Note: The following floating-point exceptions are signalling: IEEE_UNDERFLOW_FLAG IEEE_DENORMAL
Note: The following floating-point exceptions are signalling: IEEE_UNDERFLOW_FLAG IEEE_DENORMAL
Note: The following floating-point exceptions are signalling: IEEE_UNDERFLOW_FLAG IEEE_DENORMAL
Note: The following floating-point exceptions are signalling: IEEE_UNDERFLOW_FLAG IEEE_DENORMAL
Note: The following floating-point exceptions are signalling: IEEE_UNDERFLOW_FLAG IEEE_DENORMAL
Note: The following floating-point exceptions are signalling: IEEE_UNDERFLOW_FLAG IEEE_DENORMAL
Note: The following floating-point exceptions are signalling: IEEE_UNDERFLOW_FLAG IEEE_DENORMAL
Note: The following floating-point exceptions are signalling: IEEE_UNDERFLOW_FLAG IEEE_DENORMAL
Note: The following floating-point exceptions are signalling: IEEE_UNDERFLOW_FLAG IEEE_DENORMAL
Note: The following floating-point exceptions are signalling: IEEE_UNDERFLOW_FLAG IEEE_DENORMAL
Note: The following floating-point exceptions are signalling: IEEE_UNDERFLOW_FLAG IEEE_DENORMAL
Note: The following floating-point exceptions are signalling: IEEE_UNDERFLOW_FLAG IEEE_DENORMAL
Note: The following floating-point exceptions are signalling: IEEE_UNDERFLOW_FLAG IEEE_DENORMAL
Note: The following floating-point exceptions are signalling: IEEE_UNDERFLOW_FLAG IEEE_DENORMAL
Note: The following floating-point exceptions are signalling: IEEE_UNDERFLOW_FLAG IEEE_DENORMAL
Note: The following floating-point exceptions are signalling: IEEE_UNDERFLOW_FLAG IEEE_DENORMAL
Note: The following floating-point exceptions are signalling: IEEE_UNDERFLOW_FLAG IEEE_DENORMAL
Note: The following floating-point exceptions are signalling: IEEE_UNDERFLOW_FLAG IEEE_DENORMAL
Note: The following floating-point exceptions are signalling: IEEE_UNDERFLOW_FLAG IEEE_DENORMAL
Note: The following floating-point exceptions are signalling: IEEE_UNDERFLOW_FLAG IEEE_DENORMAL
Note: The following floating-point exceptions are signalling: IEEE_UNDERFLOW_FLAG IEEE_DENORMAL
Note: The following floating-point exceptions are signalling: IEEE_UNDERFLOW_FLAG IEEE_DENORMAL
Note: The following floating-point exceptions are signalling: IEEE_UNDERFLOW_FLAG IEEE_DENORMAL
Note: The following floating-point exceptions are signalling: IEEE_UNDERFLOW_FLAG IEEE_DENORMAL
Note: The following floating-point exceptions are signalling: IEEE_UNDERFLOW_FLAG IEEE_DENORMAL
Note: The following floating-point exceptions are signalling: IEEE_UNDERFLOW_FLAG IEEE_DENORMAL
Note: The following floating-point exceptions are signalling: IEEE_UNDERFLOW_FLAG IEEE_DENORMAL
Note: The following floating-point exceptions are signalling: IEEE_UNDERFLOW_FLAG IEEE_DENORMAL
Note: The following floating-point exceptions are signalling: IEEE_UNDERFLOW_FLAG IEEE_DENORMAL
Note: The following floating-point exceptions are signalling: IEEE_UNDERFLOW_FLAG IEEE_DENORMAL
Note: The following floating-point exceptions are signalling: IEEE_UNDERFLOW_FLAG IEEE_DENORMAL
Note: The following floating-point exceptions are signalling: IEEE_UNDERFLOW_FLAG IEEE_DENORMAL
Note: The following floating-point exceptions are signalling: IEEE_UNDERFLOW_FLAG IEEE_DENORMAL
Note: The following floating-point exceptions are signalling: IEEE_UNDERFLOW_FLAG IEEE_DENORMAL
Note: The following floating-point exceptions are signalling: IEEE_UNDERFLOW_FLAG IEEE_DENORMAL
Note: The following floating-point exceptions are signalling: IEEE_UNDERFLOW_FLAG IEEE_DENORMAL
Note: The following floating-point exceptions are signalling: IEEE_UNDERFLOW_FLAG IEEE_DENORMAL
Note: The following floating-point exceptions are signalling: IEEE_UNDERFLOW_FLAG IEEE_DENORMAL
Note: The following floating-point exceptions are signalling: IEEE_UNDERFLOW_FLAG IEEE_DENORMAL
Note: The following floating-point exceptions are signalling: IEEE_UNDERFLOW_FLAG IEEE_DENORMAL
Note: The following floating-point exceptions are signalling: IEEE_UNDERFLOW_FLAG IEEE_DENORMAL
Note: The following floating-point exceptions are signalling: IEEE_UNDERFLOW_FLAG IEEE_DENORMAL
Note: The following floating-point exceptions are signalling: IEEE_UNDERFLOW_FLAG IEEE_DENORMAL
Note: The following floating-point exceptions are signalling: IEEE_UNDERFLOW_FLAG IEEE_DENORMAL
Note: The following floating-point exceptions are signalling: IEEE_UNDERFLOW_FLAG IEEE_DENORMAL
Note: The following floating-point exceptions are signalling: IEEE_UNDERFLOW_FLAG IEEE_DENORMAL
Note: The following floating-point exceptions are signalling: IEEE_UNDERFLOW_FLAG IEEE_DENORMAL
Note: The following floating-point exceptions are signalling: IEEE_UNDERFLOW_FLAG IEEE_DENORMAL
Note: The following floating-point exceptions are signalling: IEEE_UNDERFLOW_FLAG IEEE_DENORMAL
Note: The following floating-point exceptions are signalling: IEEE_UNDERFLOW_FLAG IEEE_DENORMAL
Note: The following floating-point exceptions are signalling: IEEE_UNDERFLOW_FLAG IEEE_DENORMAL
Note: The following floating-point exceptions are signalling: IEEE_UNDERFLOW_FLAG IEEE_DENORMAL
Note: The following floating-point exceptions are signalling: IEEE_UNDERFLOW_FLAG IEEE_DENORMAL
Note: The following floating-point exceptions are signalling: IEEE_UNDERFLOW_FLAG IEEE_DENORMAL
Note: The following floating-point exceptions are signalling: IEEE_UNDERFLOW_FLAG IEEE_DENORMAL
Note: The following floating-point exceptions are signalling: IEEE_UNDERFLOW_FLAG IEEE_DENORMAL
Note: The following floating-point exceptions are signalling: IEEE_UNDERFLOW_FLAG IEEE_DENORMAL
Note: The following floating-point exceptions are signalling: IEEE_UNDERFLOW_FLAG IEEE_DENORMAL
Note: The following floating-point exceptions are signalling: IEEE_UNDERFLOW_FLAG IEEE_DENORMAL
Note: The following floating-point exceptions are signalling: IEEE_UNDERFLOW_FLAG IEEE_DENORMAL
Note: The following floating-point exceptions are signalling: IEEE_UNDERFLOW_FLAG IEEE_DENORMAL
Note: The following floating-point exceptions are signalling: IEEE_UNDERFLOW_FLAG IEEE_DENORMAL
Note: The following floating-point exceptions are signalling: IEEE_UNDERFLOW_FLAG IEEE_DENORMAL
Note: The following floating-point exceptions are signalling: IEEE_UNDERFLOW_FLAG IEEE_DENORMAL
Note: The following floating-point exceptions are signalling: IEEE_UNDERFLOW_FLAG IEEE_DENORMAL
Note: The following floating-point exceptions are signalling: IEEE_UNDERFLOW_FLAG IEEE_DENORMAL
Note: The following floating-point exceptions are signalling: IEEE_UNDERFLOW_FLAG IEEE_DENORMAL
Note: The following floating-point exceptions are signalling: IEEE_UNDERFLOW_FLAG IEEE_DENORMAL
Note: The following floating-point exceptions are signalling: IEEE_UNDERFLOW_FLAG IEEE_DENORMAL
Note: The following floating-point exceptions are signalling: IEEE_UNDERFLOW_FLAG IEEE_DENORMAL
Note: The following floating-point exceptions are signalling: IEEE_UNDERFLOW_FLAG IEEE_DENORMAL
Note: The following floating-point exceptions are signalling: IEEE_UNDERFLOW_FLAG IEEE_DENORMAL
Note: The following floating-point exceptions are signalling: IEEE_UNDERFLOW_FLAG IEEE_DENORMAL
Note: The following floating-point exceptions are signalling: IEEE_UNDERFLOW_FLAG IEEE_DENORMAL
Note: The following floating-point exceptions are signalling: IEEE_UNDERFLOW_FLAG IEEE_DENORMAL
Note: The following floating-point exceptions are signalling: IEEE_UNDERFLOW_FLAG IEEE_DENORMAL
Note: The following floating-point exceptions are signalling: IEEE_UNDERFLOW_FLAG IEEE_DENORMAL
Note: The following floating-point exceptions are signalling: IEEE_UNDERFLOW_FLAG IEEE_DENORMAL
Note: The following floating-point exceptions are signalling: IEEE_UNDERFLOW_FLAG IEEE_DENORMAL
Note: The following floating-point exceptions are signalling: IEEE_UNDERFLOW_FLAG IEEE_DENORMAL
Note: The following floating-point exceptions are signalling: IEEE_UNDERFLOW_FLAG IEEE_DENORMAL
Note: The following floating-point exceptions are signalling: IEEE_UNDERFLOW_FLAG IEEE_DENORMAL
Note: The following floating-point exceptions are signalling: IEEE_UNDERFLOW_FLAG IEEE_DENORMAL
Note: The following floating-point exceptions are signalling: IEEE_UNDERFLOW_FLAG IEEE_DENORMAL
Note: The following floating-point exceptions are signalling: IEEE_UNDERFLOW_FLAG IEEE_DENORMAL
Note: The following floating-point exceptions are signalling: IEEE_UNDERFLOW_FLAG IEEE_DENORMAL
Note: The following floating-point exceptions are signalling: IEEE_UNDERFLOW_FLAG IEEE_DENORMAL
Note: The following floating-point exceptions are signalling: IEEE_UNDERFLOW_FLAG IEEE_DENORMAL
Note: The following floating-point exceptions are signalling: IEEE_UNDERFLOW_FLAG IEEE_DENORMAL
Note: The following floating-point exceptions are signalling: IEEE_UNDERFLOW_FLAG IEEE_DENORMAL
Note: The following floating-point exceptions are signalling: IEEE_UNDERFLOW_FLAG IEEE_DENORMAL
Note: The following floating-point exceptions are signalling: IEEE_UNDERFLOW_FLAG IEEE_DENORMAL
Note: The following floating-point exceptions are signalling: IEEE_UNDERFLOW_FLAG IEEE_DENORMAL
Note: The following floating-point exceptions are signalling: IEEE_UNDERFLOW_FLAG IEEE_DENORMAL
Note: The following floating-point exceptions are signalling: IEEE_UNDERFLOW_FLAG IEEE_DENORMAL
Note: The following floating-point exceptions are signalling: IEEE_UNDERFLOW_FLAG IEEE_DENORMAL
Note: The following floating-point exceptions are signalling: IEEE_UNDERFLOW_FLAG IEEE_DENORMAL
Note: The following floating-point exceptions are signalling: IEEE_UNDERFLOW_FLAG IEEE_DENORMAL
Note: The following floating-point exceptions are signalling: IEEE_UNDERFLOW_FLAG IEEE_DENORMAL
