Lmod has detected the following error: The following module(s) are unknown:
"epcc-job-env"

Please check the spelling or version number. Also try "module spider ..."
It is also possible your cache file is out-of-date; it may help to try:
  $ module --ignore-cache load "epcc-job-env"

Also make sure that all modulefiles written in TCL start with the string
#%Module




Warning: You have enabled access to software packages installed
by external parties on ARCHER2 or those that are not fully-supported.
The ARCHER2 CSE service does not test these packages. The service desk
will make reasonable efforts to assist with questions on the use of
these packages but some issues may not be able to be resolved by the
service and they may direct you to seek help from external parties.


         512 PROCESSORS WORKING

         
 *******************************************************************************
 *                                                                             *
 *                               CRYSTAL17                                     *
 *                      public : 1.0.2 - March 1st, 2018 STFC/Archer2 build    *
 *                       HTTP://WWW.CRYSTAL.UNITO.IT                           *
 *                                                                             *
 *                              MAIN AUTHORS                                   *
 *                                                                             *
 *  R. DOVESI(1,11), V.R. SAUNDERS(2), C. ROETTI(1,11), R. ORLANDO(1,11),      *
 *  C.M. ZICOVICH-WILSON(1,3), F. PASCALE(4), B. CIVALLERI(1,11),              *
 *  K. DOLL(5), N.M. HARRISON(2,6), I.J. BUSH(7), Ph. D'ARCO(8),               *
 *  M. LLUNELL(9), M. CAUSA'(10), Y. NOEL(8), L. MASCHIO(1,11), A. ERBA(1,11)  *
 *  M. RE'RAT(14), S. CASASSA(1,11)                                            *
 *                                                                             *
 *        CONTRIBUTIONS TO THE CODE HAVE ALSO BEEN GIVEN BY                    *
 *                                                                             *
 *  M. FERRABONE(1,11), M. DE LA PIERRE(1,11), M. FERRERO(1,11),               *
 *  J. BAIMA(1,11), E. ALBANESE(1,11), M.F. PEINTINGER(12), R. BAST(13),       *
 *  B. KIRTMAN(15), V. LACIVITA(1,11), R. DEMICHELIS(1,16)                     *
 *  G. BRANDEBURG(17), S. SALUSTRO(1,11), G. SANSONE(1,11)                     *
 *  M.T. RUGGIERO(18)                                                          *
 *                                                                             *
 * (1) THEORETICAL CHEMISTRY GROUP - UNIVERSITA' DI TORINO - TORINO (ITALY)    *
 * (2) COMPUTATIONAL SCIENCE & ENGINEERING DEPARTMENT - STFC DARESBURY (UK)    *
 * (3) UNIVERSIDAD AUTONOMA DEL ESTADO DE MORELOS - CUERNAVACA (MEXICO)        *
 * (4) UNIVERSITE' DE LORRAINE - NANCY (FRANCE)                                *
 * (5) UNIVERSITAET STUTTGART- STUTTGART (GERMANY)                             *
 * (6) IMPERIAL COLLEGE - LONDON (UK)                                          *
 * (7) OXFORD E-RESEARCH CENTRE - OXFORD (UK)                                  *
 * (8) UPMC - SORBONNE UNIVERSITES - PARIS (FRANCE)                            *
 * (9) UNIVERSIDAD DE BARCELONA - BARCELONA (SPAIN)                            *
 *(10) UNIVERSITA' DI NAPOLI "FEDERICO II" - NAPOLI (ITALY)                    *
 *(11) NIS - NANOSTRUCTURED INTERFACES AND SURFACES - TORINO (ITALY)           *
 *(12) MPI FUER CHEMISCHE ENERGIEKONVERSION - MUELHEIM AN DER RUHR (GERMANY)   *
 *(13) UNIVERSITY OF TROMSO - TROMSO (NORWAY)                                  *
 *(14) UNIVERSITE' DE PAU ET DES PAYS DE L'ADOUR - PAU (FRANCE)                *
 *(15) UNIVERSITY OF CALIFORNIA SANTA BARBARA - SANTA BARBARA (USA)            *
 *(16) CURTIN UNIVERSITY - PERTH (AUSTRALIA)                                   *
 *(17) UNIVERSITY COLLEGE LONDON - LONDON (UK)                                 *
 *(18) CAMBRIDGE UNIVERSITY - CAMBRIDGE (UK)                                   *
 *                                                                             *
 *******************************************************************************
 EEEEEEEEEE STARTING  DATE 27 02 2022 TIME 22:11:29.7
 F2 HA freq - PBEh-3c                                                            

 GEOMETRY INPUT FROM EXTERNAL FILE (FORTRAN UNIT 34)
 3D - CRYSTAL 

 *******************************************************************************
 LATTICE PARAMETERS  (ANGSTROMS AND DEGREES) - PRIMITIVE CELL
       A          B          C        ALPHA      BETA     GAMMA        VOLUME
   11.79919    7.17093   17.18500    90.00000  90.00000  90.00000   1454.043387

 NUMBER OF IRREDUCIBLE ATOMS IN THE CELL:   20

 CARTESIAN COORDINATES (ANGSTROM) - IRREDUCIBLE ATOMS AND SYMMETRY RELATED

 AT.IRR.  AT  AT.N.          X                   Y                   Z
     1     1     8   -2.792021384346E+00 -1.818959048051E+00 -6.355482327112E+00
     1     2     8   -3.107571605968E+00  1.818959048051E+00  2.237018935753E+00
     1     3     8    3.107571606048E+00 -1.766507897744E+00  6.355482327112E+00
     1     4     8    2.792021384346E+00  1.766507897734E+00 -2.237018935693E+00
     1     5     8    2.792021384346E+00  1.818959048051E+00  6.355482327112E+00
     1     6     8    3.107571606048E+00 -1.818959048051E+00 -2.237018935693E+00
     1     7     8   -3.107571605968E+00  1.766507897734E+00 -6.355482327112E+00
     1     8     8   -2.792021384346E+00 -1.766507897744E+00  2.237018935753E+00
     9     9     8   -1.250957122804E+00 -1.628321673668E+00  2.349239566300E-02
     9    10     8   -4.648635867510E+00  1.628321673668E+00 -8.569008867142E+00
     9    11     8    4.648635867590E+00 -1.957145272127E+00 -2.349239566300E-02
     9    12     8    1.250957122804E+00  1.957145272117E+00  8.569008867202E+00
     9    13     8    1.250957122804E+00  1.628321673668E+00 -2.349239566300E-02
     9    14     8    4.648635867590E+00 -1.628321673668E+00  8.569008867202E+00
     9    15     8   -4.648635867510E+00  1.957145272117E+00  2.349239566300E-02
     9    16     8   -1.250957122804E+00 -1.957145272127E+00 -8.569008867142E+00
    17    17     7    1.766045522450E-01 -2.105529051460E+00 -1.667682636328E+00
    17    18     7    5.722988438150E+00  2.105529051460E+00  6.924818626537E+00
    17    19     7   -5.722988438070E+00 -1.479937894335E+00  1.667682636328E+00
    17    20     7   -1.766045522450E-01  1.479937894325E+00 -6.924818626477E+00
    17    21     7   -1.766045522450E-01  2.105529051460E+00  1.667682636328E+00
    17    22     7   -5.722988438070E+00 -2.105529051460E+00 -6.924818626477E+00
    17    23     7    5.722988438150E+00  1.479937894325E+00 -1.667682636328E+00
    17    24     7    1.766045522450E-01 -1.479937894335E+00  6.924818626537E+00
    25    25     6   -2.097977783811E+00 -1.933447988030E+00 -5.204562577264E+00
    25    26     6   -3.801615206504E+00  1.933447988030E+00  3.387938685601E+00
    25    27     6    3.801615206584E+00 -1.652018957765E+00  5.204562577264E+00
    25    28     6    2.097977783811E+00  1.652018957755E+00 -3.387938685541E+00
    25    29     6    2.097977783811E+00  1.933447988030E+00  5.204562577264E+00
    25    30     6    3.801615206584E+00 -1.933447988030E+00 -3.387938685541E+00
    25    31     6   -3.801615206504E+00  1.652018957755E+00 -5.204562577264E+00
    25    32     6   -2.097977783811E+00 -1.652018957765E+00  3.387938685601E+00
    33    33     6   -6.622331329580E-01 -2.068484617652E+00 -2.797518276136E+00
    33    34     6   -5.237359857357E+00  2.068484617652E+00  5.794982986729E+00
    33    35     6    5.237359857437E+00 -1.516982328143E+00  2.797518276136E+00
    33    36     6    6.622331329580E-01  1.516982328133E+00 -5.794982986669E+00
    33    37     6    6.622331329580E-01  2.068484617652E+00  2.797518276136E+00
    33    38     6    5.237359857437E+00 -2.068484617652E+00 -5.794982986669E+00
    33    39     6   -5.237359857357E+00  1.516982328133E+00 -2.797518276136E+00
    33    40     6   -6.622331329580E-01 -1.516982328143E+00  5.794982986729E+00
    41    41     6   -1.931418643806E+00 -1.495932204039E+00 -2.834307127658E+00
    41    42     6   -3.968174346509E+00  1.495932204039E+00  5.758194135207E+00
    41    43     6    3.968174346589E+00 -2.089534741756E+00  2.834307127658E+00
    41    44     6    1.931418643806E+00  2.089534741746E+00 -5.758194135147E+00
    41    45     6    1.931418643806E+00  1.495932204039E+00  2.834307127658E+00
    41    46     6    3.968174346589E+00 -1.495932204039E+00 -5.758194135147E+00
    41    47     6   -3.968174346509E+00  2.089534741746E+00 -2.834307127658E+00
    41    48     6   -1.931418643806E+00 -2.089534741756E+00  5.758194135207E+00
    49    49     6   -2.638753634558E+00 -1.431413643230E+00 -4.026427973398E+00
    49    50     6   -3.260839355757E+00  1.431413643230E+00  4.566073289467E+00
    49    51     6    3.260839355837E+00 -2.154053302565E+00  4.026427973398E+00
    49    52     6    2.638753634558E+00  2.154053302555E+00 -4.566073289407E+00
    49    53     6    2.638753634558E+00  1.431413643230E+00  4.026427973398E+00
    49    54     6    3.260839355837E+00 -1.431413643230E+00 -4.566073289407E+00
    49    55     6   -3.260839355757E+00  2.154053302555E+00 -4.026427973398E+00
    49    56     6   -2.638753634558E+00 -2.154053302565E+00  4.566073289467E+00
    57    57     6    1.061757091136E+00 -2.007174925367E+00  5.554285616510E-01
    57    58     6    4.837835899259E+00  2.007174925367E+00 -8.037072701154E+00
    57    59     6   -4.837835899179E+00 -1.578292020428E+00 -5.554285616510E-01
    57    60     6   -1.061757091136E+00  1.578292020418E+00  8.037072701214E+00
    57    61     6   -1.061757091136E+00  2.007174925367E+00 -5.554285616510E-01
    57    62     6   -4.837835899179E+00 -2.007174925367E+00  8.037072701214E+00
    57    63     6    4.837835899259E+00  1.578292020418E+00  5.554285616510E-01
    57    64     6    1.061757091136E+00 -1.578292020428E+00 -8.037072701154E+00
    65    65     6   -8.516657602630E-01 -2.549975831127E+00 -5.156505679998E+00
    65    66     6   -5.047927230052E+00  2.549975831127E+00  3.435995582867E+00
    65    67     6    5.047927230132E+00 -1.035491114668E+00  5.156505679998E+00
    65    68     6    8.516657602630E-01  1.035491114658E+00 -3.435995582807E+00
    65    69     6    8.516657602630E-01  2.549975831127E+00  5.156505679998E+00
    65    70     6    5.047927230132E+00 -2.549975831127E+00 -3.435995582807E+00
    65    71     6   -5.047927230052E+00  1.035491114658E+00 -5.156505679998E+00
    65    72     6   -8.516657602630E-01 -1.035491114668E+00  3.435995582867E+00
    73    73     6   -1.181997233150E-01 -1.902484927885E+00 -3.744837906560E-01
    73    74     6   -5.781393266999E+00  1.902484927885E+00  8.218017472210E+00
    73    75     6    5.781393267079E+00 -1.682982017910E+00  3.744837906560E-01
    73    76     6    1.181997233150E-01  1.682982017900E+00 -8.218017472150E+00
    73    77     6    1.181997233150E-01  1.902484927885E+00  3.744837906560E-01
    73    78     6    5.781393267079E+00 -1.902484927885E+00 -8.218017472150E+00
    73    79     6   -5.781393266999E+00  1.682982017900E+00 -3.744837906560E-01
    73    80     6   -1.181997233150E-01 -1.682982017910E+00  8.218017472210E+00
    81    81     6   -1.453375106630E-01 -2.611147278676E+00 -3.971177689754E+00
    81    82     6   -5.754255479652E+00  2.611147278676E+00  4.621323573111E+00
    81    83     6    5.754255479732E+00 -9.743196671190E-01  3.971177689754E+00
    81    84     6    1.453375106630E-01  9.743196671090E-01 -4.621323573051E+00
    81    85     6    1.453375106630E-01  2.611147278676E+00  3.971177689754E+00
    81    86     6    5.754255479732E+00 -2.611147278676E+00 -4.621323573051E+00
    81    87     6   -5.754255479652E+00  9.743196671090E-01 -3.971177689754E+00
    81    88     6   -1.453375106630E-01 -9.743196671190E-01  4.621323573111E+00
    89    89     1   -2.196381591786E+00 -1.938612437971E+00 -7.126688547739E+00
    89    90     1   -3.703211398529E+00  1.938612437971E+00  1.465812715126E+00
    89    91     1    3.703211398609E+00 -1.646854507824E+00  7.126688547739E+00
    89    92     1    2.196381591786E+00  1.646854507814E+00 -1.465812715066E+00
    89    93     1    2.196381591786E+00  1.938612437971E+00  7.126688547739E+00
    89    94     1    3.703211398609E+00 -1.938612437971E+00 -1.465812715066E+00
    89    95     1   -3.703211398529E+00  1.646854507814E+00 -7.126688547739E+00
    89    96     1   -2.196381591786E+00 -1.646854507824E+00  1.465812715126E+00
    97    97     1    1.160218361672E+00 -2.239441748368E+00 -1.882011179773E+00
    97    98     1    4.739374628723E+00  2.239441748368E+00  6.710490083092E+00
    97    99     1   -4.739374628643E+00 -1.346025197427E+00  1.882011179773E+00
    97   100     1   -1.160218361672E+00  1.346025197417E+00 -6.710490083032E+00
    97   101     1   -1.160218361672E+00  2.239441748368E+00  1.882011179773E+00
    97   102     1   -4.739374628643E+00 -2.239441748368E+00 -6.710490083032E+00
    97   103     1    4.739374628723E+00  1.346025197417E+00 -1.882011179773E+00
    97   104     1    1.160218361672E+00 -1.346025197427E+00  6.710490083092E+00
   105   105     1   -2.373965094693E+00 -1.069780263671E+00 -1.949663220402E+00
   105   106     1   -3.525627895622E+00  1.069780263671E+00  6.642838042463E+00
   105   107     1    3.525627895702E+00 -2.515686682125E+00  1.949663220402E+00
   105   108     1    2.373965094693E+00  2.515686682115E+00 -6.642838042403E+00
   105   109     1    2.373965094693E+00  1.069780263671E+00  1.949663220402E+00
   105   110     1    3.525627895702E+00 -1.069780263671E+00 -6.642838042403E+00
   105   111     1   -3.525627895622E+00  2.515686682115E+00 -1.949663220402E+00
   105   112     1   -2.373965094693E+00 -2.515686682125E+00  6.642838042463E+00
   113   113     1   -3.612977629882E+00 -9.599845866560E-01 -4.037045386980E+00
   113   114     1   -2.286615360433E+00  9.599845866560E-01  4.555455875885E+00
   113   115     1    2.286615360513E+00 -2.625482359139E+00  4.037045386980E+00
   113   116     1    3.612977629882E+00  2.625482359129E+00 -4.555455875825E+00
   113   117     1    3.612977629882E+00  9.599845866560E-01  4.037045386980E+00
   113   118     1    2.286615360513E+00 -9.599845866560E-01 -4.555455875825E+00
   113   119     1   -2.286615360433E+00  2.625482359129E+00 -4.037045386980E+00
   113   120     1   -3.612977629882E+00 -2.625482359139E+00  4.555455875885E+00
   121   121     1    1.533936289292E+00 -1.028338925193E+00  6.551579399020E-01
   121   122     1    4.365656701103E+00  1.028338925193E+00 -7.937343322903E+00
   121   123     1   -4.365656701023E+00 -2.557128020602E+00 -6.551579399020E-01
   121   124     1   -1.533936289292E+00  2.557128020592E+00  7.937343322963E+00
   121   125     1   -1.533936289292E+00  1.028338925193E+00 -6.551579399020E-01
   121   126     1   -4.365656701023E+00 -1.028338925193E+00  7.937343322963E+00
   121   127     1    4.365656701103E+00  2.557128020592E+00  6.551579399020E-01
   121   128     1    1.533936289292E+00 -2.557128020602E+00 -7.937343322903E+00
   129   129     1    1.816109420806E+00 -2.704081622612E+00  1.966459278440E-01
   129   130     1    4.083483569589E+00  2.704081622612E+00 -8.395855334961E+00
   129   131     1   -4.083483569509E+00 -8.813853231830E-01 -1.966459278440E-01
   129   132     1   -1.816109420806E+00  8.813853231730E-01  8.395855335021E+00
   129   133     1   -1.816109420806E+00  2.704081622612E+00 -1.966459278440E-01
   129   134     1   -4.083483569509E+00 -2.704081622612E+00  8.395855335021E+00
   129   135     1    4.083483569589E+00  8.813853231730E-01  1.966459278440E-01
   129   136     1    1.816109420806E+00 -8.813853231830E-01 -8.395855334961E+00
   137   137     1    7.375484872150E-01 -2.325873052511E+00  1.542649049233E+00
   137   138     1    5.162044503180E+00  2.325873052511E+00 -7.049852213572E+00
   137   139     1   -5.162044503100E+00 -1.259593893284E+00 -1.542649049233E+00
   137   140     1   -7.375484872150E-01  1.259593893274E+00  7.049852213632E+00
   137   141     1   -7.375484872150E-01  2.325873052511E+00 -1.542649049233E+00
   137   142     1   -5.162044503100E+00 -2.325873052511E+00  7.049852213632E+00
   137   143     1    5.162044503180E+00  1.259593893274E+00  1.542649049233E+00
   137   144     1    7.375484872150E-01 -1.259593893284E+00 -7.049852213572E+00
   145   145     1   -4.292244689830E-01 -3.000761165728E+00 -6.043609455321E+00
   145   146     1   -5.470368521332E+00  3.000761165728E+00  2.548891807544E+00
   145   147     1    5.470368521412E+00 -5.847057800670E-01  6.043609455321E+00
   145   148     1    4.292244689830E-01  5.847057800570E-01 -2.548891807484E+00
   145   149     1    4.292244689830E-01  3.000761165728E+00  6.043609455321E+00
   145   150     1    5.470368521412E+00 -3.000761165728E+00 -2.548891807484E+00
   145   151     1   -5.470368521332E+00  5.847057800570E-01 -6.043609455321E+00
   145   152     1   -4.292244689830E-01 -5.847057800670E-01  2.548891807544E+00
   153   153     1    8.256102849010E-01 -3.091636818818E+00 -3.970474359090E+00
   153   154     1    5.073982705494E+00  3.091636818818E+00  4.622026903775E+00
   153   155     1   -5.073982705414E+00 -4.938301269770E-01  3.970474359090E+00
   153   156     1   -8.256102849010E-01  4.938301269670E-01 -4.622026903715E+00
   153   157     1   -8.256102849010E-01  3.091636818818E+00  3.970474359090E+00
   153   158     1   -5.073982705414E+00 -3.091636818818E+00 -4.622026903715E+00
   153   159     1    5.073982705494E+00  4.938301269670E-01 -3.970474359090E+00
   153   160     1    8.256102849010E-01 -4.938301269770E-01  4.622026903775E+00

 SPACE  GROUP  N.                     :   61
 NUMBER OF SYMMETRY OPERATORS         :    8
 *******************************************************************************
 LATTICE PARAMETERS (ANGSTROMS AND DEGREES) - BOHR = 0.5291772083 ANGSTROM
 PRIMITIVE CELL - CENTRING CODE 1/0 VOLUME=  1454.043387 - DENSITY  1.380 g/cm^3
         A              B              C           ALPHA      BETA       GAMMA 
    11.79918598     7.17093389    17.18500253    90.000000  90.000000  90.000000
 *******************************************************************************
 ATOMS IN THE ASYMMETRIC UNIT   20 - ATOMS IN THE UNIT CELL:  160
     ATOM                 X/A                 Y/B                 Z/C    
 *******************************************************************************
      1 T   8 O    -2.366283054537E-01 -2.536572049823E-01 -3.698272559231E-01
      2 F   8 O    -2.633716945433E-01  2.536572049823E-01  1.301727440777E-01
      3 F   8 O     2.633716945500E-01 -2.463427950184E-01  3.698272559231E-01
      4 F   8 O     2.366283054537E-01  2.463427950170E-01 -1.301727440742E-01
      5 F   8 O     2.366283054537E-01  2.536572049823E-01  3.698272559231E-01
      6 F   8 O     2.633716945500E-01 -2.536572049823E-01 -1.301727440742E-01
      7 F   8 O    -2.633716945433E-01  2.463427950170E-01 -3.698272559231E-01
      8 F   8 O    -2.366283054537E-01 -2.463427950184E-01  1.301727440777E-01
      9 T   8 O    -1.060206292917E-01 -2.270724703766E-01  1.367028932807E-03
     10 F   8 O    -3.939793707052E-01  2.270724703766E-01 -4.986329710646E-01
     11 F   8 O     3.939793707120E-01 -2.729275296241E-01 -1.367028932807E-03
     12 F   8 O     1.060206292917E-01  2.729275296228E-01  4.986329710681E-01
     13 F   8 O     1.060206292917E-01  2.270724703766E-01 -1.367028932807E-03
     14 F   8 O     3.939793707120E-01 -2.270724703766E-01  4.986329710681E-01
     15 F   8 O    -3.939793707052E-01  2.729275296228E-01  1.367028932807E-03
     16 F   8 O    -1.060206292917E-01 -2.729275296241E-01 -4.986329710646E-01
     17 T   7 N     1.496752000806E-02 -2.936199222157E-01 -9.704290900359E-02
     18 F   7 N     4.850324799957E-01  2.936199222157E-01  4.029570909973E-01
     19 F   7 N    -4.850324799890E-01 -2.063800777849E-01  9.704290900359E-02
     20 F   7 N    -1.496752000806E-02  2.063800777836E-01 -4.029570909938E-01
     21 F   7 N    -1.496752000806E-02  2.936199222157E-01  9.704290900359E-02
     22 F   7 N    -4.850324799890E-01 -2.936199222157E-01 -4.029570909938E-01
     23 F   7 N     4.850324799957E-01  2.063800777836E-01 -9.704290900359E-02
     24 F   7 N     1.496752000806E-02 -2.063800777849E-01  4.029570909973E-01
     25 T   6 C    -1.778069934013E-01 -2.696228995083E-01 -3.028549207066E-01
     26 F   6 C    -3.221930065957E-01  2.696228995083E-01  1.971450792942E-01
     27 F   6 C     3.221930066025E-01 -2.303771004924E-01  3.028549207066E-01
     28 F   6 C     1.778069934013E-01  2.303771004910E-01 -1.971450792908E-01
     29 F   6 C     1.778069934013E-01  2.696228995083E-01  3.028549207066E-01
     30 F   6 C     3.221930066025E-01 -2.696228995083E-01 -1.971450792908E-01
     31 F   6 C    -3.221930065957E-01  2.303771004910E-01 -3.028549207066E-01
     32 F   6 C    -1.778069934013E-01 -2.303771004924E-01  1.971450792942E-01
     33 T   6 C    -5.612532373345E-02 -2.884540073756E-01 -1.627883540868E-01
     34 F   6 C    -4.438746762636E-01  2.884540073756E-01  3.372116459141E-01
     35 F   6 C     4.438746762704E-01 -2.115459926251E-01  1.627883540868E-01
     36 F   6 C     5.612532373345E-02  2.115459926237E-01 -3.372116459106E-01
     37 F   6 C     5.612532373345E-02  2.884540073756E-01  1.627883540868E-01
     38 F   6 C     4.438746762704E-01 -2.884540073756E-01 -3.372116459106E-01
     39 F   6 C    -4.438746762636E-01  2.115459926237E-01 -1.627883540868E-01
     40 F   6 C    -5.612532373345E-02 -2.115459926251E-01  3.372116459141E-01
     41 T   6 C    -1.636908382464E-01 -2.086105138684E-01 -1.649291074249E-01
     42 F   6 C    -3.363091617506E-01  2.086105138684E-01  3.350708925760E-01
     43 F   6 C     3.363091617574E-01 -2.913894861323E-01  1.649291074249E-01
     44 F   6 C     1.636908382464E-01  2.913894861309E-01 -3.350708925725E-01
     45 F   6 C     1.636908382464E-01  2.086105138684E-01  1.649291074249E-01
     46 F   6 C     3.363091617574E-01 -2.086105138684E-01 -3.350708925725E-01
     47 F   6 C    -3.363091617506E-01  2.913894861309E-01 -1.649291074249E-01
     48 F   6 C    -1.636908382464E-01 -2.913894861323E-01  3.350708925760E-01
     49 T   6 C    -2.236386170092E-01 -1.996132811810E-01 -2.342989456869E-01
     50 F   6 C    -2.763613829878E-01  1.996132811810E-01  2.657010543140E-01
     51 F   6 C     2.763613829946E-01 -3.003867188197E-01  2.342989456869E-01
     52 F   6 C     2.236386170092E-01  3.003867188183E-01 -2.657010543105E-01
     53 F   6 C     2.236386170092E-01  1.996132811810E-01  2.342989456869E-01
     54 F   6 C     2.763613829946E-01 -1.996132811810E-01 -2.657010543105E-01
     55 F   6 C    -2.763613829878E-01  3.003867188183E-01 -2.342989456869E-01
     56 F   6 C    -2.236386170092E-01 -3.003867188197E-01  2.657010543140E-01
     57 T   6 C     8.998562213298E-02 -2.799042573414E-01  3.232054000693E-02
     58 F   6 C     4.100143778708E-01  2.799042573414E-01 -4.676794599905E-01
     59 F   6 C    -4.100143778641E-01 -2.200957426593E-01 -3.232054000693E-02
     60 F   6 C    -8.998562213298E-02  2.200957426579E-01  4.676794599939E-01
     61 F   6 C    -8.998562213298E-02  2.799042573414E-01 -3.232054000693E-02
     62 F   6 C    -4.100143778641E-01 -2.799042573414E-01  4.676794599939E-01
     63 F   6 C     4.100143778708E-01  2.200957426579E-01  3.232054000693E-02
     64 F   6 C     8.998562213298E-02 -2.200957426593E-01 -4.676794599905E-01
     65 T   6 C    -7.218004374675E-02 -3.555988480275E-01 -3.000584767030E-01
     66 F   6 C    -4.278199562503E-01  3.555988480275E-01  1.999415232979E-01
     67 F   6 C     4.278199562571E-01 -1.444011519732E-01  3.000584767030E-01
     68 F   6 C     7.218004374675E-02  1.444011519718E-01 -1.999415232944E-01
     69 F   6 C     7.218004374675E-02  3.555988480275E-01  3.000584767030E-01
     70 F   6 C     4.278199562571E-01 -3.555988480275E-01 -1.999415232944E-01
     71 F   6 C    -4.278199562503E-01  1.444011519718E-01 -3.000584767030E-01
     72 F   6 C    -7.218004374675E-02 -1.444011519732E-01  1.999415232979E-01
     73 T   6 C    -1.001761676681E-02 -2.653050434782E-01 -2.179131426347E-02
     74 F   6 C    -4.899823832301E-01  2.653050434782E-01  4.782086857375E-01
     75 F   6 C     4.899823832369E-01 -2.346949565225E-01  2.179131426347E-02
     76 F   6 C     1.001761676681E-02  2.346949565211E-01 -4.782086857340E-01
     77 F   6 C     1.001761676681E-02  2.653050434782E-01  2.179131426347E-02
     78 F   6 C     4.899823832369E-01 -2.653050434782E-01 -4.782086857340E-01
     79 F   6 C    -4.899823832301E-01  2.346949565211E-01 -2.179131426347E-02
     80 F   6 C    -1.001761676681E-02 -2.346949565225E-01  4.782086857375E-01
     81 T   6 C    -1.231758791672E-02 -3.641293195775E-01 -2.310839165613E-01
     82 F   6 C    -4.876824120803E-01  3.641293195775E-01  2.689160834396E-01
     83 F   6 C     4.876824120871E-01 -1.358706804232E-01  2.310839165613E-01
     84 F   6 C     1.231758791672E-02  1.358706804218E-01 -2.689160834361E-01
     85 F   6 C     1.231758791672E-02  3.641293195775E-01  2.310839165613E-01
     86 F   6 C     4.876824120871E-01 -3.641293195775E-01 -2.689160834361E-01
     87 F   6 C    -4.876824120803E-01  1.358706804218E-01 -2.310839165613E-01
     88 F   6 C    -1.231758791672E-02 -1.358706804232E-01  2.689160834396E-01
     89 T   1 H    -1.861468744860E-01 -2.703430916087E-01 -4.147039569579E-01
     90 F   1 H    -3.138531255111E-01  2.703430916087E-01  8.529604304299E-02
     91 F   1 H     3.138531255178E-01 -2.296569083920E-01  4.147039569579E-01
     92 F   1 H     1.861468744860E-01  2.296569083907E-01 -8.529604303950E-02
     93 F   1 H     1.861468744860E-01  2.703430916087E-01  4.147039569579E-01
     94 F   1 H     3.138531255178E-01 -2.703430916087E-01 -8.529604303950E-02
     95 F   1 H    -3.138531255111E-01  2.296569083907E-01 -4.147039569579E-01
     96 F   1 H    -1.861468744860E-01 -2.296569083920E-01  8.529604304299E-02
     97 T   1 H     9.833037326217E-02 -3.122942955865E-01 -1.095147456021E-01
     98 F   1 H     4.016696267416E-01  3.122942955865E-01  3.904852543988E-01
     99 F   1 H    -4.016696267349E-01 -1.877057044142E-01  1.095147456021E-01
    100 F   1 H    -9.833037326217E-02  1.877057044128E-01 -3.904852543953E-01
    101 F   1 H    -9.833037326217E-02  3.122942955865E-01  1.095147456021E-01
    102 F   1 H    -4.016696267349E-01 -3.122942955865E-01 -3.904852543953E-01
    103 F   1 H     4.016696267416E-01  1.877057044128E-01 -1.095147456021E-01
    104 F   1 H     9.833037326217E-02 -1.877057044142E-01  3.904852543988E-01
    105 T   1 H    -2.011973621380E-01 -1.491828372490E-01 -1.134514363606E-01
    106 F   1 H    -2.988026378590E-01  1.491828372490E-01  3.865485636402E-01
    107 F   1 H     2.988026378658E-01 -3.508171627518E-01  1.134514363606E-01
    108 F   1 H     2.011973621380E-01  3.508171627504E-01 -3.865485636367E-01
    109 F   1 H     2.011973621380E-01  1.491828372490E-01  1.134514363606E-01
    110 F   1 H     2.988026378658E-01 -1.491828372490E-01 -3.865485636367E-01
    111 F   1 H    -2.988026378590E-01  3.508171627504E-01 -1.134514363606E-01
    112 F   1 H    -2.011973621380E-01 -3.508171627518E-01  3.865485636402E-01
    113 T   1 H    -3.062056684073E-01 -1.338716269276E-01 -2.349167758889E-01
    114 F   1 H    -1.937943315898E-01  1.338716269276E-01  2.650832241120E-01
    115 F   1 H     1.937943315965E-01 -3.661283730731E-01  2.349167758889E-01
    116 F   1 H     3.062056684073E-01  3.661283730717E-01 -2.650832241085E-01
    117 F   1 H     3.062056684073E-01  1.338716269276E-01  2.349167758889E-01
    118 F   1 H     1.937943315965E-01 -1.338716269276E-01 -2.650832241085E-01
    119 F   1 H    -1.937943315898E-01  3.661283730717E-01 -2.349167758889E-01
    120 F   1 H    -3.062056684073E-01 -3.661283730731E-01  2.650832241120E-01
    121 T   1 H     1.300035690429E-01 -1.434037659168E-01  3.812381982035E-02
    122 F   1 H     3.699964309609E-01  1.434037659168E-01 -4.618761801770E-01
    123 F   1 H    -3.699964309541E-01 -3.565962340839E-01 -3.812381982035E-02
    124 F   1 H    -1.300035690429E-01  3.565962340825E-01  4.618761801805E-01
    125 F   1 H    -1.300035690429E-01  1.434037659168E-01 -3.812381982035E-02
    126 F   1 H    -3.699964309541E-01 -1.434037659168E-01  4.618761801805E-01
    127 F   1 H     3.699964309609E-01  3.565962340825E-01  3.812381982035E-02
    128 F   1 H     1.300035690429E-01 -3.565962340839E-01 -4.618761801770E-01
    129 T   1 H     1.539181960329E-01 -3.770891858015E-01  1.144288035745E-02
    130 F   1 H     3.460818039709E-01  3.770891858015E-01 -4.885571196399E-01
    131 F   1 H    -3.460818039641E-01 -1.229108141992E-01 -1.144288035745E-02
    132 F   1 H    -1.539181960329E-01  1.229108141978E-01  4.885571196434E-01
    133 F   1 H    -1.539181960329E-01  3.770891858015E-01 -1.144288035745E-02
    134 F   1 H    -3.460818039641E-01 -3.770891858015E-01  4.885571196434E-01
    135 F   1 H     3.460818039709E-01  1.229108141978E-01  1.144288035745E-02
    136 F   1 H     1.539181960329E-01 -1.229108141992E-01 -4.885571196399E-01
    137 T   1 H     6.250842120985E-02 -3.243473008783E-01  8.976717035252E-02
    138 F   1 H     4.374915787940E-01  3.243473008783E-01 -4.102328296449E-01
    139 F   1 H    -4.374915787872E-01 -1.756526991224E-01 -8.976717035252E-02
    140 F   1 H    -6.250842120985E-02  1.756526991210E-01  4.102328296484E-01
    141 F   1 H    -6.250842120985E-02  3.243473008783E-01 -8.976717035252E-02
    142 F   1 H    -4.374915787872E-01 -3.243473008783E-01  4.102328296484E-01
    143 F   1 H     4.374915787940E-01  1.756526991210E-01  8.976717035252E-02
    144 F   1 H     6.250842120985E-02 -1.756526991224E-01 -4.102328296449E-01
    145 T   1 H    -3.637746448654E-02 -4.184616970534E-01 -3.516792881632E-01
    146 F   1 H    -4.636225355105E-01  4.184616970534E-01  1.483207118377E-01
    147 F   1 H     4.636225355173E-01 -8.153830294734E-02  3.516792881632E-01
    148 F   1 H     3.637746448654E-02  8.153830294595E-02 -1.483207118342E-01
    149 F   1 H     3.637746448654E-02  4.184616970534E-01  3.516792881632E-01
    150 F   1 H     4.636225355173E-01 -4.184616970534E-01 -1.483207118342E-01
    151 F   1 H    -4.636225355105E-01  8.153830294595E-02 -3.516792881632E-01
    152 F   1 H    -3.637746448654E-02 -8.153830294734E-02  1.483207118377E-01
    153 T   1 H     6.997180027940E-02 -4.311344750296E-01 -2.310429895574E-01
    154 F   1 H     4.300281997244E-01  4.311344750296E-01  2.689570104434E-01
    155 F   1 H    -4.300281997176E-01 -6.886552497114E-02  2.310429895574E-01
    156 F   1 H    -6.997180027940E-02  6.886552496975E-02 -2.689570104399E-01
    157 F   1 H    -6.997180027940E-02  4.311344750296E-01  2.310429895574E-01
    158 F   1 H    -4.300281997176E-01 -4.311344750296E-01 -2.689570104399E-01
    159 F   1 H     4.300281997244E-01  6.886552496975E-02 -2.310429895574E-01
    160 F   1 H     6.997180027940E-02 -6.886552497114E-02  2.689570104434E-01

 T = ATOM BELONGING TO THE ASYMMETRIC UNIT
 *******************************************************************************
 * GEOMETRY EDITING - INPUT COORDINATES ARE GIVEN IN ANGSTROM         
 *******************************************************************************

 GEOMETRY NOW FULLY CONSISTENT WITH THE GROUP

 FRQFRQFRQFRQFRQFRQFRQFRQFRQFRQFRQFRQFRQFRQFRQFRQFRQFRQFRQFRQFRQFRQFRQFRQFRQFRQ

                       FREQUENCY CALCULATION

 INFORMATION **** INPFREQ ****  PRINTING OF EIGENVECTORS
 INFORMATION **** INPFREQ **** NEW DEFAULT - IMPOSING ECKART CONDITIONS TO THE HESSIAN

 GCALCO - MAX INDICES DIRECT LATTICE VECTOR    14    23     9
 NO.OF VECTORS CREATED 6999 STARS 1061 RMAX   254.08515 BOHR

 GEOMETRY FOR WAVE FUNCTION - DIMENSIONALITY OF THE SYSTEM    3
 (NON PERIODIC DIRECTION: LATTICE PARAMETER FORMALLY SET TO 500)
 *******************************************************************************
 LATTICE PARAMETERS (ANGSTROMS AND DEGREES) - BOHR = 0.5291772083 ANGSTROM
 PRIMITIVE CELL - CENTRING CODE 1/0 VOLUME=  1454.043387 - DENSITY  1.380 g/cm^3
         A              B              C           ALPHA      BETA       GAMMA 
    11.79918598     7.17093389    17.18500253    90.000000  90.000000  90.000000
 *******************************************************************************
 ATOMS IN THE ASYMMETRIC UNIT   20 - ATOMS IN THE UNIT CELL:  160
     ATOM                 X/A                 Y/B                 Z/C    
 *******************************************************************************
      1 T   8 O    -2.366283054537E-01 -2.536572049823E-01 -3.698272559231E-01
      2 F   8 O    -2.633716945429E-01  2.536572049823E-01  1.301727440780E-01
      3 F   8 O     2.633716945497E-01 -2.463427950177E-01  3.698272559231E-01
      4 F   8 O     2.366283054537E-01  2.463427950177E-01 -1.301727440757E-01
      5 F   8 O     2.366283054537E-01  2.536572049823E-01  3.698272559231E-01
      6 F   8 O     2.633716945497E-01 -2.536572049823E-01 -1.301727440757E-01
      7 F   8 O    -2.633716945429E-01  2.463427950177E-01 -3.698272559231E-01
      8 F   8 O    -2.366283054537E-01 -2.463427950177E-01  1.301727440780E-01
      9 T   8 O    -1.060206292917E-01 -2.270724703766E-01  1.367028932807E-03
     10 F   8 O    -3.939793707049E-01  2.270724703766E-01 -4.986329710660E-01
     11 F   8 O     3.939793707117E-01 -2.729275296234E-01 -1.367028932807E-03
     12 F   8 O     1.060206292917E-01  2.729275296234E-01  4.986329710684E-01
     13 F   8 O     1.060206292917E-01  2.270724703766E-01 -1.367028932807E-03
     14 F   8 O     3.939793707117E-01 -2.270724703766E-01  4.986329710684E-01
     15 F   8 O    -3.939793707049E-01  2.729275296234E-01  1.367028932807E-03
     16 F   8 O    -1.060206292917E-01 -2.729275296234E-01 -4.986329710660E-01
     17 T   7 N     1.496752000806E-02 -2.936199222157E-01 -9.704290900359E-02
     18 F   7 N     4.850324799953E-01  2.936199222157E-01  4.029570909976E-01
     19 F   7 N    -4.850324799885E-01 -2.063800777843E-01  9.704290900359E-02
     20 F   7 N    -1.496752000806E-02  2.063800777843E-01 -4.029570909952E-01
     21 F   7 N    -1.496752000806E-02  2.936199222157E-01  9.704290900359E-02
     22 F   7 N    -4.850324799885E-01 -2.936199222157E-01 -4.029570909952E-01
     23 F   7 N     4.850324799953E-01  2.063800777843E-01 -9.704290900359E-02
     24 F   7 N     1.496752000806E-02 -2.063800777843E-01  4.029570909976E-01
     25 T   6 C    -1.778069934013E-01 -2.696228995083E-01 -3.028549207066E-01
     26 F   6 C    -3.221930065953E-01  2.696228995083E-01  1.971450792945E-01
     27 F   6 C     3.221930066021E-01 -2.303771004917E-01  3.028549207066E-01
     28 F   6 C     1.778069934013E-01  2.303771004917E-01 -1.971450792922E-01
     29 F   6 C     1.778069934013E-01  2.696228995083E-01  3.028549207066E-01
     30 F   6 C     3.221930066021E-01 -2.696228995083E-01 -1.971450792922E-01
     31 F   6 C    -3.221930065953E-01  2.303771004917E-01 -3.028549207066E-01
     32 F   6 C    -1.778069934013E-01 -2.303771004917E-01  1.971450792945E-01
     33 T   6 C    -5.612532373345E-02 -2.884540073756E-01 -1.627883540868E-01
     34 F   6 C    -4.438746762632E-01  2.884540073756E-01  3.372116459144E-01
     35 F   6 C     4.438746762699E-01 -2.115459926244E-01  1.627883540868E-01
     36 F   6 C     5.612532373345E-02  2.115459926244E-01 -3.372116459120E-01
     37 F   6 C     5.612532373345E-02  2.884540073756E-01  1.627883540868E-01
     38 F   6 C     4.438746762699E-01 -2.884540073756E-01 -3.372116459120E-01
     39 F   6 C    -4.438746762632E-01  2.115459926244E-01 -1.627883540868E-01
     40 F   6 C    -5.612532373345E-02 -2.115459926244E-01  3.372116459144E-01
     41 T   6 C    -1.636908382464E-01 -2.086105138684E-01 -1.649291074249E-01
     42 F   6 C    -3.363091617502E-01  2.086105138684E-01  3.350708925763E-01
     43 F   6 C     3.363091617570E-01 -2.913894861316E-01  1.649291074249E-01
     44 F   6 C     1.636908382464E-01  2.913894861316E-01 -3.350708925740E-01
     45 F   6 C     1.636908382464E-01  2.086105138684E-01  1.649291074249E-01
     46 F   6 C     3.363091617570E-01 -2.086105138684E-01 -3.350708925740E-01
     47 F   6 C    -3.363091617502E-01  2.913894861316E-01 -1.649291074249E-01
     48 F   6 C    -1.636908382464E-01 -2.913894861316E-01  3.350708925763E-01
     49 T   6 C    -2.236386170092E-01 -1.996132811810E-01 -2.342989456869E-01
     50 F   6 C    -2.763613829874E-01  1.996132811810E-01  2.657010543143E-01
     51 F   6 C     2.763613829942E-01 -3.003867188190E-01  2.342989456869E-01
     52 F   6 C     2.236386170092E-01  3.003867188190E-01 -2.657010543119E-01
     53 F   6 C     2.236386170092E-01  1.996132811810E-01  2.342989456869E-01
     54 F   6 C     2.763613829942E-01 -1.996132811810E-01 -2.657010543119E-01
     55 F   6 C    -2.763613829874E-01  3.003867188190E-01 -2.342989456869E-01
     56 F   6 C    -2.236386170092E-01 -3.003867188190E-01  2.657010543143E-01
     57 T   6 C     8.998562213298E-02 -2.799042573414E-01  3.232054000693E-02
     58 F   6 C     4.100143778704E-01  2.799042573414E-01 -4.676794599919E-01
     59 F   6 C    -4.100143778636E-01 -2.200957426586E-01 -3.232054000693E-02
     60 F   6 C    -8.998562213298E-02  2.200957426586E-01  4.676794599942E-01
     61 F   6 C    -8.998562213298E-02  2.799042573414E-01 -3.232054000693E-02
     62 F   6 C    -4.100143778636E-01 -2.799042573414E-01  4.676794599942E-01
     63 F   6 C     4.100143778704E-01  2.200957426586E-01  3.232054000693E-02
     64 F   6 C     8.998562213298E-02 -2.200957426586E-01 -4.676794599919E-01
     65 T   6 C    -7.218004374675E-02 -3.555988480275E-01 -3.000584767030E-01
     66 F   6 C    -4.278199562499E-01  3.555988480275E-01  1.999415232982E-01
     67 F   6 C     4.278199562566E-01 -1.444011519725E-01  3.000584767030E-01
     68 F   6 C     7.218004374675E-02  1.444011519725E-01 -1.999415232959E-01
     69 F   6 C     7.218004374675E-02  3.555988480275E-01  3.000584767030E-01
     70 F   6 C     4.278199562566E-01 -3.555988480275E-01 -1.999415232959E-01
     71 F   6 C    -4.278199562499E-01  1.444011519725E-01 -3.000584767030E-01
     72 F   6 C    -7.218004374675E-02 -1.444011519725E-01  1.999415232982E-01
     73 T   6 C    -1.001761676681E-02 -2.653050434782E-01 -2.179131426347E-02
     74 F   6 C    -4.899823832298E-01  2.653050434782E-01  4.782086857377E-01
     75 F   6 C     4.899823832366E-01 -2.346949565218E-01  2.179131426347E-02
     76 F   6 C     1.001761676681E-02  2.346949565218E-01 -4.782086857354E-01
     77 F   6 C     1.001761676681E-02  2.653050434782E-01  2.179131426347E-02
     78 F   6 C     4.899823832366E-01 -2.653050434782E-01 -4.782086857354E-01
     79 F   6 C    -4.899823832298E-01  2.346949565218E-01 -2.179131426347E-02
     80 F   6 C    -1.001761676681E-02 -2.346949565218E-01  4.782086857377E-01
     81 T   6 C    -1.231758791672E-02 -3.641293195775E-01 -2.310839165613E-01
     82 F   6 C    -4.876824120799E-01  3.641293195775E-01  2.689160834399E-01
     83 F   6 C     4.876824120867E-01 -1.358706804225E-01  2.310839165613E-01
     84 F   6 C     1.231758791672E-02  1.358706804225E-01 -2.689160834376E-01
     85 F   6 C     1.231758791672E-02  3.641293195775E-01  2.310839165613E-01
     86 F   6 C     4.876824120867E-01 -3.641293195775E-01 -2.689160834376E-01
     87 F   6 C    -4.876824120799E-01  1.358706804225E-01 -2.310839165613E-01
     88 F   6 C    -1.231758791672E-02 -1.358706804225E-01  2.689160834399E-01
     89 T   1 H    -1.861468744860E-01 -2.703430916087E-01 -4.147039569579E-01
     90 F   1 H    -3.138531255106E-01  2.703430916087E-01  8.529604304328E-02
     91 F   1 H     3.138531255174E-01 -2.296569083913E-01  4.147039569579E-01
     92 F   1 H     1.861468744860E-01  2.296569083913E-01 -8.529604304095E-02
     93 F   1 H     1.861468744860E-01  2.703430916087E-01  4.147039569579E-01
     94 F   1 H     3.138531255174E-01 -2.703430916087E-01 -8.529604304095E-02
     95 F   1 H    -3.138531255106E-01  2.296569083913E-01 -4.147039569579E-01
     96 F   1 H    -1.861468744860E-01 -2.296569083913E-01  8.529604304328E-02
     97 T   1 H     9.833037326217E-02 -3.122942955865E-01 -1.095147456021E-01
     98 F   1 H     4.016696267412E-01  3.122942955865E-01  3.904852543991E-01
     99 F   1 H    -4.016696267344E-01 -1.877057044135E-01  1.095147456021E-01
    100 F   1 H    -9.833037326217E-02  1.877057044135E-01 -3.904852543968E-01
    101 F   1 H    -9.833037326217E-02  3.122942955865E-01  1.095147456021E-01
    102 F   1 H    -4.016696267344E-01 -3.122942955865E-01 -3.904852543968E-01
    103 F   1 H     4.016696267412E-01  1.877057044135E-01 -1.095147456021E-01
    104 F   1 H     9.833037326217E-02 -1.877057044135E-01  3.904852543991E-01
    105 T   1 H    -2.011973621380E-01 -1.491828372490E-01 -1.134514363606E-01
    106 F   1 H    -2.988026378586E-01  1.491828372490E-01  3.865485636405E-01
    107 F   1 H     2.988026378653E-01 -3.508171627510E-01  1.134514363606E-01
    108 F   1 H     2.011973621380E-01  3.508171627510E-01 -3.865485636382E-01
    109 F   1 H     2.011973621380E-01  1.491828372490E-01  1.134514363606E-01
    110 F   1 H     2.988026378653E-01 -1.491828372490E-01 -3.865485636382E-01
    111 F   1 H    -2.988026378586E-01  3.508171627510E-01 -1.134514363606E-01
    112 F   1 H    -2.011973621380E-01 -3.508171627510E-01  3.865485636405E-01
    113 T   1 H    -3.062056684073E-01 -1.338716269276E-01 -2.349167758889E-01
    114 F   1 H    -1.937943315893E-01  1.338716269276E-01  2.650832241123E-01
    115 F   1 H     1.937943315961E-01 -3.661283730724E-01  2.349167758889E-01
    116 F   1 H     3.062056684073E-01  3.661283730724E-01 -2.650832241099E-01
    117 F   1 H     3.062056684073E-01  1.338716269276E-01  2.349167758889E-01
    118 F   1 H     1.937943315961E-01 -1.338716269276E-01 -2.650832241099E-01
    119 F   1 H    -1.937943315893E-01  3.661283730724E-01 -2.349167758889E-01
    120 F   1 H    -3.062056684073E-01 -3.661283730724E-01  2.650832241123E-01
    121 T   1 H     1.300035690429E-01 -1.434037659168E-01  3.812381982035E-02
    122 F   1 H     3.699964309605E-01  1.434037659168E-01 -4.618761801785E-01
    123 F   1 H    -3.699964309537E-01 -3.565962340832E-01 -3.812381982035E-02
    124 F   1 H    -1.300035690429E-01  3.565962340832E-01  4.618761801808E-01
    125 F   1 H    -1.300035690429E-01  1.434037659168E-01 -3.812381982035E-02
    126 F   1 H    -3.699964309537E-01 -1.434037659168E-01  4.618761801808E-01
    127 F   1 H     3.699964309605E-01  3.565962340832E-01  3.812381982035E-02
    128 F   1 H     1.300035690429E-01 -3.565962340832E-01 -4.618761801785E-01
    129 T   1 H     1.539181960329E-01 -3.770891858015E-01  1.144288035745E-02
    130 F   1 H     3.460818039705E-01  3.770891858015E-01 -4.885571196414E-01
    131 F   1 H    -3.460818039637E-01 -1.229108141985E-01 -1.144288035745E-02
    132 F   1 H    -1.539181960329E-01  1.229108141985E-01  4.885571196437E-01
    133 F   1 H    -1.539181960329E-01  3.770891858015E-01 -1.144288035745E-02
    134 F   1 H    -3.460818039637E-01 -3.770891858015E-01  4.885571196437E-01
    135 F   1 H     3.460818039705E-01  1.229108141985E-01  1.144288035745E-02
    136 F   1 H     1.539181960329E-01 -1.229108141985E-01 -4.885571196414E-01
    137 T   1 H     6.250842120985E-02 -3.243473008783E-01  8.976717035252E-02
    138 F   1 H     4.374915787935E-01  3.243473008783E-01 -4.102328296463E-01
    139 F   1 H    -4.374915787868E-01 -1.756526991217E-01 -8.976717035252E-02
    140 F   1 H    -6.250842120985E-02  1.756526991217E-01  4.102328296486E-01
    141 F   1 H    -6.250842120985E-02  3.243473008783E-01 -8.976717035252E-02
    142 F   1 H    -4.374915787868E-01 -3.243473008783E-01  4.102328296486E-01
    143 F   1 H     4.374915787935E-01  1.756526991217E-01  8.976717035252E-02
    144 F   1 H     6.250842120985E-02 -1.756526991217E-01 -4.102328296463E-01
    145 T   1 H    -3.637746448654E-02 -4.184616970534E-01 -3.516792881632E-01
    146 F   1 H    -4.636225355101E-01  4.184616970534E-01  1.483207118380E-01
    147 F   1 H     4.636225355168E-01 -8.153830294664E-02  3.516792881632E-01
    148 F   1 H     3.637746448654E-02  8.153830294664E-02 -1.483207118356E-01
    149 F   1 H     3.637746448654E-02  4.184616970534E-01  3.516792881632E-01
    150 F   1 H     4.636225355168E-01 -4.184616970534E-01 -1.483207118356E-01
    151 F   1 H    -4.636225355101E-01  8.153830294664E-02 -3.516792881632E-01
    152 F   1 H    -3.637746448654E-02 -8.153830294664E-02  1.483207118380E-01
    153 T   1 H     6.997180027940E-02 -4.311344750296E-01 -2.310429895574E-01
    154 F   1 H     4.300281997240E-01  4.311344750296E-01  2.689570104437E-01
    155 F   1 H    -4.300281997172E-01 -6.886552497044E-02  2.310429895574E-01
    156 F   1 H    -6.997180027940E-02  6.886552497044E-02 -2.689570104414E-01
    157 F   1 H    -6.997180027940E-02  4.311344750296E-01  2.310429895574E-01
    158 F   1 H    -4.300281997172E-01 -4.311344750296E-01 -2.689570104414E-01
    159 F   1 H     4.300281997240E-01  6.886552497044E-02 -2.310429895574E-01
    160 F   1 H     6.997180027940E-02 -6.886552497044E-02  2.689570104437E-01

 T = ATOM BELONGING TO THE ASYMMETRIC UNIT

 ****    8 SYMMOPS - TRANSLATORS IN FRACTIONAL UNITS
 **** MATRICES AND TRANSLATORS IN THE CRYSTALLOGRAPHIC REFERENCE FRAME
   V INV                    ROTATION MATRICES                   TRANSLATORS
   1   1  1.00  0.00  0.00  0.00  1.00  0.00  0.00  0.00  1.00  0.00  0.00  0.00
   2   2 -1.00  0.00  0.00  0.00 -1.00  0.00  0.00  0.00  1.00  0.50  0.00  0.50
   3   3  1.00  0.00  0.00  0.00 -1.00  0.00  0.00  0.00 -1.00  0.50  0.50  0.00
   4   4 -1.00  0.00  0.00  0.00  1.00  0.00  0.00  0.00 -1.00  0.00  0.50  0.50
   5   5 -1.00  0.00  0.00  0.00 -1.00  0.00  0.00  0.00 -1.00  0.00  0.00  0.00
   6   6  1.00  0.00  0.00  0.00  1.00  0.00  0.00  0.00 -1.00  0.50  0.00  0.50
   7   7 -1.00  0.00  0.00  0.00  1.00  0.00  0.00  0.00  1.00  0.50  0.50  0.00
   8   8  1.00  0.00  0.00  0.00 -1.00  0.00  0.00  0.00  1.00  0.00  0.50  0.50

 DIRECT LATTICE VECTORS CARTESIAN COMPONENTS (ANGSTROM)
          X                    Y                    Z
   0.117991859807E+02   0.000000000000E+00   0.000000000000E+00
   0.000000000000E+00   0.717093389158E+01   0.000000000000E+00
   0.000000000000E+00   0.000000000000E+00   0.171850025257E+02


 CARTESIAN COORDINATES - PRIMITIVE CELL
 *******************************************************************************
 *      ATOM          X(ANGSTROM)         Y(ANGSTROM)         Z(ANGSTROM)
 *******************************************************************************
    1     8 O    -2.792021384346E+00 -1.818959048051E+00 -6.355482327112E+00
    2     8 O    -3.107571605964E+00  1.818959048051E+00  2.237018935758E+00
    3     8 O     3.107571606044E+00 -1.766507897739E+00  6.355482327112E+00
    4     8 O     2.792021384346E+00  1.766507897739E+00 -2.237018935718E+00
    5     8 O     2.792021384346E+00  1.818959048051E+00  6.355482327112E+00
    6     8 O     3.107571606044E+00 -1.818959048051E+00 -2.237018935718E+00
    7     8 O    -3.107571605964E+00  1.766507897739E+00 -6.355482327112E+00
    8     8 O    -2.792021384346E+00 -1.766507897739E+00  2.237018935758E+00
    9     8 O    -1.250957122804E+00 -1.628321673668E+00  2.349239566300E-02
   10     8 O    -4.648635867506E+00  1.628321673668E+00 -8.569008867167E+00
   11     8 O     4.648635867586E+00 -1.957145272122E+00 -2.349239566300E-02
   12     8 O     1.250957122804E+00  1.957145272122E+00  8.569008867207E+00
   13     8 O     1.250957122804E+00  1.628321673668E+00 -2.349239566300E-02
   14     8 O     4.648635867586E+00 -1.628321673668E+00  8.569008867207E+00
   15     8 O    -4.648635867506E+00  1.957145272122E+00  2.349239566300E-02
   16     8 O    -1.250957122804E+00 -1.957145272122E+00 -8.569008867167E+00
   17     7 N     1.766045522450E-01 -2.105529051460E+00 -1.667682636328E+00
   18     7 N     5.722988438145E+00  2.105529051460E+00  6.924818626542E+00
   19     7 N    -5.722988438065E+00 -1.479937894330E+00  1.667682636328E+00
   20     7 N    -1.766045522450E-01  1.479937894330E+00 -6.924818626502E+00
   21     7 N    -1.766045522450E-01  2.105529051460E+00  1.667682636328E+00
   22     7 N    -5.722988438065E+00 -2.105529051460E+00 -6.924818626502E+00
   23     7 N     5.722988438145E+00  1.479937894330E+00 -1.667682636328E+00
   24     7 N     1.766045522450E-01 -1.479937894330E+00  6.924818626542E+00
   25     6 C    -2.097977783811E+00 -1.933447988030E+00 -5.204562577264E+00
   26     6 C    -3.801615206499E+00  1.933447988030E+00  3.387938685606E+00
   27     6 C     3.801615206579E+00 -1.652018957760E+00  5.204562577264E+00
   28     6 C     2.097977783811E+00  1.652018957760E+00 -3.387938685566E+00
   29     6 C     2.097977783811E+00  1.933447988030E+00  5.204562577264E+00
   30     6 C     3.801615206579E+00 -1.933447988030E+00 -3.387938685566E+00
   31     6 C    -3.801615206499E+00  1.652018957760E+00 -5.204562577264E+00
   32     6 C    -2.097977783811E+00 -1.652018957760E+00  3.387938685606E+00
   33     6 C    -6.622331329580E-01 -2.068484617652E+00 -2.797518276136E+00
   34     6 C    -5.237359857352E+00  2.068484617652E+00  5.794982986734E+00
   35     6 C     5.237359857432E+00 -1.516982328138E+00  2.797518276136E+00
   36     6 C     6.622331329580E-01  1.516982328138E+00 -5.794982986694E+00
   37     6 C     6.622331329580E-01  2.068484617652E+00  2.797518276136E+00
   38     6 C     5.237359857432E+00 -2.068484617652E+00 -5.794982986694E+00
   39     6 C    -5.237359857352E+00  1.516982328138E+00 -2.797518276136E+00
   40     6 C    -6.622331329580E-01 -1.516982328138E+00  5.794982986734E+00
   41     6 C    -1.931418643806E+00 -1.495932204039E+00 -2.834307127658E+00
   42     6 C    -3.968174346504E+00  1.495932204039E+00  5.758194135212E+00
   43     6 C     3.968174346584E+00 -2.089534741751E+00  2.834307127658E+00
   44     6 C     1.931418643806E+00  2.089534741751E+00 -5.758194135172E+00
   45     6 C     1.931418643806E+00  1.495932204039E+00  2.834307127658E+00
   46     6 C     3.968174346584E+00 -1.495932204039E+00 -5.758194135172E+00
   47     6 C    -3.968174346504E+00  2.089534741751E+00 -2.834307127658E+00
   48     6 C    -1.931418643806E+00 -2.089534741751E+00  5.758194135212E+00
   49     6 C    -2.638753634558E+00 -1.431413643230E+00 -4.026427973398E+00
   50     6 C    -3.260839355752E+00  1.431413643230E+00  4.566073289472E+00
   51     6 C     3.260839355832E+00 -2.154053302560E+00  4.026427973398E+00
   52     6 C     2.638753634558E+00  2.154053302560E+00 -4.566073289432E+00
   53     6 C     2.638753634558E+00  1.431413643230E+00  4.026427973398E+00
   54     6 C     3.260839355832E+00 -1.431413643230E+00 -4.566073289432E+00
   55     6 C    -3.260839355752E+00  2.154053302560E+00 -4.026427973398E+00
   56     6 C    -2.638753634558E+00 -2.154053302560E+00  4.566073289472E+00
   57     6 C     1.061757091136E+00 -2.007174925367E+00  5.554285616510E-01
   58     6 C     4.837835899254E+00  2.007174925367E+00 -8.037072701179E+00
   59     6 C    -4.837835899174E+00 -1.578292020423E+00 -5.554285616510E-01
   60     6 C    -1.061757091136E+00  1.578292020423E+00  8.037072701219E+00
   61     6 C    -1.061757091136E+00  2.007174925367E+00 -5.554285616510E-01
   62     6 C    -4.837835899174E+00 -2.007174925367E+00  8.037072701219E+00
   63     6 C     4.837835899254E+00  1.578292020423E+00  5.554285616510E-01
   64     6 C     1.061757091136E+00 -1.578292020423E+00 -8.037072701179E+00
   65     6 C    -8.516657602630E-01 -2.549975831127E+00 -5.156505679998E+00
   66     6 C    -5.047927230047E+00  2.549975831127E+00  3.435995582872E+00
   67     6 C     5.047927230127E+00 -1.035491114663E+00  5.156505679998E+00
   68     6 C     8.516657602630E-01  1.035491114663E+00 -3.435995582832E+00
   69     6 C     8.516657602630E-01  2.549975831127E+00  5.156505679998E+00
   70     6 C     5.047927230127E+00 -2.549975831127E+00 -3.435995582832E+00
   71     6 C    -5.047927230047E+00  1.035491114663E+00 -5.156505679998E+00
   72     6 C    -8.516657602630E-01 -1.035491114663E+00  3.435995582872E+00
   73     6 C    -1.181997233150E-01 -1.902484927885E+00 -3.744837906560E-01
   74     6 C    -5.781393266995E+00  1.902484927885E+00  8.218017472214E+00
   75     6 C     5.781393267075E+00 -1.682982017905E+00  3.744837906560E-01
   76     6 C     1.181997233150E-01  1.682982017905E+00 -8.218017472174E+00
   77     6 C     1.181997233150E-01  1.902484927885E+00  3.744837906560E-01
   78     6 C     5.781393267075E+00 -1.902484927885E+00 -8.218017472174E+00
   79     6 C    -5.781393266995E+00  1.682982017905E+00 -3.744837906560E-01
   80     6 C    -1.181997233150E-01 -1.682982017905E+00  8.218017472214E+00
   81     6 C    -1.453375106630E-01 -2.611147278676E+00 -3.971177689754E+00
   82     6 C    -5.754255479647E+00  2.611147278676E+00  4.621323573116E+00
   83     6 C     5.754255479727E+00 -9.743196671140E-01  3.971177689754E+00
   84     6 C     1.453375106630E-01  9.743196671140E-01 -4.621323573076E+00
   85     6 C     1.453375106630E-01  2.611147278676E+00  3.971177689754E+00
   86     6 C     5.754255479727E+00 -2.611147278676E+00 -4.621323573076E+00
   87     6 C    -5.754255479647E+00  9.743196671140E-01 -3.971177689754E+00
   88     6 C    -1.453375106630E-01 -9.743196671140E-01  4.621323573116E+00
   89     1 H    -2.196381591786E+00 -1.938612437971E+00 -7.126688547739E+00
   90     1 H    -3.703211398524E+00  1.938612437971E+00  1.465812715131E+00
   91     1 H     3.703211398604E+00 -1.646854507819E+00  7.126688547739E+00
   92     1 H     2.196381591786E+00  1.646854507819E+00 -1.465812715091E+00
   93     1 H     2.196381591786E+00  1.938612437971E+00  7.126688547739E+00
   94     1 H     3.703211398604E+00 -1.938612437971E+00 -1.465812715091E+00
   95     1 H    -3.703211398524E+00  1.646854507819E+00 -7.126688547739E+00
   96     1 H    -2.196381591786E+00 -1.646854507819E+00  1.465812715131E+00
   97     1 H     1.160218361672E+00 -2.239441748368E+00 -1.882011179773E+00
   98     1 H     4.739374628718E+00  2.239441748368E+00  6.710490083097E+00
   99     1 H    -4.739374628638E+00 -1.346025197422E+00  1.882011179773E+00
  100     1 H    -1.160218361672E+00  1.346025197422E+00 -6.710490083057E+00
  101     1 H    -1.160218361672E+00  2.239441748368E+00  1.882011179773E+00
  102     1 H    -4.739374628638E+00 -2.239441748368E+00 -6.710490083057E+00
  103     1 H     4.739374628718E+00  1.346025197422E+00 -1.882011179773E+00
  104     1 H     1.160218361672E+00 -1.346025197422E+00  6.710490083097E+00
  105     1 H    -2.373965094693E+00 -1.069780263671E+00 -1.949663220402E+00
  106     1 H    -3.525627895617E+00  1.069780263671E+00  6.642838042468E+00
  107     1 H     3.525627895697E+00 -2.515686682119E+00  1.949663220402E+00
  108     1 H     2.373965094693E+00  2.515686682119E+00 -6.642838042428E+00
  109     1 H     2.373965094693E+00  1.069780263671E+00  1.949663220402E+00
  110     1 H     3.525627895697E+00 -1.069780263671E+00 -6.642838042428E+00
  111     1 H    -3.525627895617E+00  2.515686682119E+00 -1.949663220402E+00
  112     1 H    -2.373965094693E+00 -2.515686682119E+00  6.642838042468E+00
  113     1 H    -3.612977629882E+00 -9.599845866560E-01 -4.037045386980E+00
  114     1 H    -2.286615360428E+00  9.599845866560E-01  4.555455875890E+00
  115     1 H     2.286615360508E+00 -2.625482359134E+00  4.037045386980E+00
  116     1 H     3.612977629882E+00  2.625482359134E+00 -4.555455875850E+00
  117     1 H     3.612977629882E+00  9.599845866560E-01  4.037045386980E+00
  118     1 H     2.286615360508E+00 -9.599845866560E-01 -4.555455875850E+00
  119     1 H    -2.286615360428E+00  2.625482359134E+00 -4.037045386980E+00
  120     1 H    -3.612977629882E+00 -2.625482359134E+00  4.555455875890E+00
  121     1 H     1.533936289292E+00 -1.028338925193E+00  6.551579399020E-01
  122     1 H     4.365656701098E+00  1.028338925193E+00 -7.937343322928E+00
  123     1 H    -4.365656701018E+00 -2.557128020597E+00 -6.551579399020E-01
  124     1 H    -1.533936289292E+00  2.557128020597E+00  7.937343322968E+00
  125     1 H    -1.533936289292E+00  1.028338925193E+00 -6.551579399020E-01
  126     1 H    -4.365656701018E+00 -1.028338925193E+00  7.937343322968E+00
  127     1 H     4.365656701098E+00  2.557128020597E+00  6.551579399020E-01
  128     1 H     1.533936289292E+00 -2.557128020597E+00 -7.937343322928E+00
  129     1 H     1.816109420806E+00 -2.704081622612E+00  1.966459278440E-01
  130     1 H     4.083483569584E+00  2.704081622612E+00 -8.395855334986E+00
  131     1 H    -4.083483569504E+00 -8.813853231780E-01 -1.966459278440E-01
  132     1 H    -1.816109420806E+00  8.813853231780E-01  8.395855335026E+00
  133     1 H    -1.816109420806E+00  2.704081622612E+00 -1.966459278440E-01
  134     1 H    -4.083483569504E+00 -2.704081622612E+00  8.395855335026E+00
  135     1 H     4.083483569584E+00  8.813853231780E-01  1.966459278440E-01
  136     1 H     1.816109420806E+00 -8.813853231780E-01 -8.395855334986E+00
  137     1 H     7.375484872150E-01 -2.325873052511E+00  1.542649049233E+00
  138     1 H     5.162044503175E+00  2.325873052511E+00 -7.049852213597E+00
  139     1 H    -5.162044503095E+00 -1.259593893279E+00 -1.542649049233E+00
  140     1 H    -7.375484872150E-01  1.259593893279E+00  7.049852213637E+00
  141     1 H    -7.375484872150E-01  2.325873052511E+00 -1.542649049233E+00
  142     1 H    -5.162044503095E+00 -2.325873052511E+00  7.049852213637E+00
  143     1 H     5.162044503175E+00  1.259593893279E+00  1.542649049233E+00
  144     1 H     7.375484872150E-01 -1.259593893279E+00 -7.049852213597E+00
  145     1 H    -4.292244689830E-01 -3.000761165728E+00 -6.043609455321E+00
  146     1 H    -5.470368521327E+00  3.000761165728E+00  2.548891807549E+00
  147     1 H     5.470368521407E+00 -5.847057800620E-01  6.043609455321E+00
  148     1 H     4.292244689830E-01  5.847057800620E-01 -2.548891807509E+00
  149     1 H     4.292244689830E-01  3.000761165728E+00  6.043609455321E+00
  150     1 H     5.470368521407E+00 -3.000761165728E+00 -2.548891807509E+00
  151     1 H    -5.470368521327E+00  5.847057800620E-01 -6.043609455321E+00
  152     1 H    -4.292244689830E-01 -5.847057800620E-01  2.548891807549E+00
  153     1 H     8.256102849010E-01 -3.091636818818E+00 -3.970474359090E+00
  154     1 H     5.073982705489E+00  3.091636818818E+00  4.622026903780E+00
  155     1 H    -5.073982705409E+00 -4.938301269720E-01  3.970474359090E+00
  156     1 H    -8.256102849010E-01  4.938301269720E-01 -4.622026903740E+00
  157     1 H    -8.256102849010E-01  3.091636818818E+00  3.970474359090E+00
  158     1 H    -5.073982705409E+00 -3.091636818818E+00 -4.622026903740E+00
  159     1 H     5.073982705489E+00  4.938301269720E-01 -3.970474359090E+00
  160     1 H     8.256102849010E-01 -4.938301269720E-01  4.622026903780E+00

 *******************************************************************************
 STARTING BASIS SET HANDLING 
 *******************************************************************************

 Loading internal basis set: DEF2-MSVP           

 Please cite in your publication:
 Fully Optimized Contracted Gaussian Basis Sets for Atoms Li to Kr. A. Schfer, H. Horn and R. Ahlrichs; J. Chem. Phys. 97, 2571 (1992).                                                                                                                         
 S. Grimme, J. G. Brandenburg, C. Bannwarth, and A. Hansen, J. Chem. Phys., 143, 054107 (2015).                                                                                                                                                                  

 *******************************************************************************
 LOCAL ATOMIC FUNCTIONS BASIS SET
 *******************************************************************************
   ATOM   X(AU)   Y(AU)   Z(AU)  N. TYPE  EXPONENT  S COEF   P COEF   D/F/G COEF
 *******************************************************************************
   1 O   -5.276  -3.437 -12.010
                                  1 S  
                                         6.773E+03 1.727E-03 0.000E+00 0.000E+00
                                         1.017E+03 1.325E-02 0.000E+00 0.000E+00
                                         2.313E+02 6.603E-02 0.000E+00 0.000E+00
                                         6.501E+01 2.353E-01 0.000E+00 0.000E+00
                                         2.050E+01 5.498E-01 0.000E+00 0.000E+00
                                  2 S  
                                         6.716E+00 1.000E+00 0.000E+00 0.000E+00
                                  3 S  
                                         1.147E+00 1.000E+00 0.000E+00 0.000E+00
                                  4 S  
                                         3.342E-01 1.000E+00 0.000E+00 0.000E+00
                           5-     7 P  
                                         1.769E+01 0.000E+00 4.359E-02 0.000E+00
                                         3.854E+00 0.000E+00 2.318E-01 0.000E+00
                                         1.047E+00 0.000E+00 5.146E-01 0.000E+00
                           8-    10 P  
                                         2.759E-01 0.000E+00 1.000E+00 0.000E+00
                          11-    15 D  
                                         8.000E-01 0.000E+00 0.000E+00 1.000E+00
   2 O   -5.872   3.437   4.227
   3 O    5.872  -3.338  12.010
   4 O    5.276   3.338  -4.227
   5 O    5.276   3.437  12.010
   6 O    5.872  -3.437  -4.227
   7 O   -5.872   3.338 -12.010
   8 O   -5.276  -3.338   4.227
   9 O   -2.364  -3.077   0.044
  10 O   -8.785   3.077 -16.193
  11 O    8.785  -3.698  -0.044
  12 O    2.364   3.698  16.193
  13 O    2.364   3.077  -0.044
  14 O    8.785  -3.077  16.193
  15 O   -8.785   3.698   0.044
  16 O   -2.364  -3.698 -16.193
  17 N    0.334  -3.979  -3.151
                                241 S  
                                         5.072E+03 1.707E-03 0.000E+00 0.000E+00
                                         7.614E+02 1.309E-02 0.000E+00 0.000E+00
                                         1.732E+02 6.510E-02 0.000E+00 0.000E+00
                                         4.867E+01 2.305E-01 0.000E+00 0.000E+00
                                         1.533E+01 5.330E-01 0.000E+00 0.000E+00
                                242 S  
                                         5.019E+00 1.000E+00 0.000E+00 0.000E+00
                                243 S  
                                         8.355E-01 1.000E+00 0.000E+00 0.000E+00
                                244 S  
                                         2.463E-01 1.000E+00 0.000E+00 0.000E+00
                         245-   247 P  
                                         1.355E+01 0.000E+00 4.063E-02 0.000E+00
                                         2.918E+00 0.000E+00 2.209E-01 0.000E+00
                                         7.983E-01 0.000E+00 5.186E-01 0.000E+00
                         248-   250 P  
                                         2.190E-01 0.000E+00 1.000E+00 0.000E+00
                         251-   255 D  
                                         8.000E-01 0.000E+00 0.000E+00 1.000E+00
  18 N   10.815   3.979  13.086
  19 N  -10.815  -2.797   3.151
  20 N   -0.334   2.797 -13.086
  21 N   -0.334   3.979   3.151
  22 N  -10.815  -3.979 -13.086
  23 N   10.815   2.797  -3.151
  24 N    0.334  -2.797  13.086
  25 C   -3.965  -3.654  -9.835
                                361 S  
                                         3.624E+03 1.634E-03 0.000E+00 0.000E+00
                                         5.440E+02 1.252E-02 0.000E+00 0.000E+00
                                         1.237E+02 6.211E-02 0.000E+00 0.000E+00
                                         3.476E+01 2.182E-01 0.000E+00 0.000E+00
                                         1.093E+01 4.980E-01 0.000E+00 0.000E+00
                                362 S  
                                         3.574E+00 1.000E+00 0.000E+00 0.000E+00
                                363 S  
                                         5.748E-01 1.000E+00 0.000E+00 0.000E+00
                                364 S  
                                         1.730E-01 1.000E+00 0.000E+00 0.000E+00
                         365-   367 P  
                                         9.443E+00 0.000E+00 3.790E-02 0.000E+00
                                         2.002E+00 0.000E+00 2.082E-01 0.000E+00
                                         5.463E-01 0.000E+00 5.047E-01 0.000E+00
                         368-   370 P  
                                         1.520E-01 0.000E+00 1.000E+00 0.000E+00
                         371-   375 D  
                                         8.000E-01 0.000E+00 0.000E+00 1.000E+00
  26 C   -7.184   3.654   6.402
  27 C    7.184  -3.122   9.835
  28 C    3.965   3.122  -6.402
  29 C    3.965   3.654   9.835
  30 C    7.184  -3.654  -6.402
  31 C   -7.184   3.122  -9.835
  32 C   -3.965  -3.122   6.402
  33 C   -1.251  -3.909  -5.287
  34 C   -9.897   3.909  10.951
  35 C    9.897  -2.867   5.287
  36 C    1.251   2.867 -10.951
  37 C    1.251   3.909   5.287
  38 C    9.897  -3.909 -10.951
  39 C   -9.897   2.867  -5.287
  40 C   -1.251  -2.867  10.951
  41 C   -3.650  -2.827  -5.356
  42 C   -7.499   2.827  10.881
  43 C    7.499  -3.949   5.356
  44 C    3.650   3.949 -10.881
  45 C    3.650   2.827   5.356
  46 C    7.499  -2.827 -10.881
  47 C   -7.499   3.949  -5.356
  48 C   -3.650  -3.949  10.881
  49 C   -4.987  -2.705  -7.609
  50 C   -6.162   2.705   8.629
  51 C    6.162  -4.071   7.609
  52 C    4.987   4.071  -8.629
  53 C    4.987   2.705   7.609
  54 C    6.162  -2.705  -8.629
  55 C   -6.162   4.071  -7.609
  56 C   -4.987  -4.071   8.629
  57 C    2.006  -3.793   1.050
  58 C    9.142   3.793 -15.188
  59 C   -9.142  -2.983  -1.050
  60 C   -2.006   2.983  15.188
  61 C   -2.006   3.793  -1.050
  62 C   -9.142  -3.793  15.188
  63 C    9.142   2.983   1.050
  64 C    2.006  -2.983 -15.188
  65 C   -1.609  -4.819  -9.744
  66 C   -9.539   4.819   6.493
  67 C    9.539  -1.957   9.744
  68 C    1.609   1.957  -6.493
  69 C    1.609   4.819   9.744
  70 C    9.539  -4.819  -6.493
  71 C   -9.539   1.957  -9.744
  72 C   -1.609  -1.957   6.493
  73 C   -0.223  -3.595  -0.708
  74 C  -10.925   3.595  15.530
  75 C   10.925  -3.180   0.708
  76 C    0.223   3.180 -15.530
  77 C    0.223   3.595   0.708
  78 C   10.925  -3.595 -15.530
  79 C  -10.925   3.180  -0.708
  80 C   -0.223  -3.180  15.530
  81 C   -0.275  -4.934  -7.504
  82 C  -10.874   4.934   8.733
  83 C   10.874  -1.841   7.504
  84 C    0.275   1.841  -8.733
  85 C    0.275   4.934   7.504
  86 C   10.874  -4.934  -8.733
  87 C  -10.874   1.841  -7.504
  88 C   -0.275  -1.841   8.733
  89 H   -4.151  -3.663 -13.467
                               1321 S  
                                         1.874E+01 1.968E-02 0.000E+00 0.000E+00
                                         2.826E+00 1.380E-01 0.000E+00 0.000E+00
                                         6.401E-01 4.783E-01 0.000E+00 0.000E+00
                               1322 S  
                                         1.756E-01 1.000E+00 0.000E+00 0.000E+00
  90 H   -6.998   3.663   2.770
  91 H    6.998  -3.112  13.467
  92 H    4.151   3.112  -2.770
  93 H    4.151   3.663  13.467
  94 H    6.998  -3.663  -2.770
  95 H   -6.998   3.112 -13.467
  96 H   -4.151  -3.112   2.770
  97 H    2.192  -4.232  -3.556
  98 H    8.956   4.232  12.681
  99 H   -8.956  -2.544   3.556
 100 H   -2.192   2.544 -12.681
 101 H   -2.192   4.232   3.556
 102 H   -8.956  -4.232 -12.681
 103 H    8.956   2.544  -3.556
 104 H    2.192  -2.544  12.681
 105 H   -4.486  -2.022  -3.684
 106 H   -6.662   2.022  12.553
 107 H    6.662  -4.754   3.684
 108 H    4.486   4.754 -12.553
 109 H    4.486   2.022   3.684
 110 H    6.662  -2.022 -12.553
 111 H   -6.662   4.754  -3.684
 112 H   -4.486  -4.754  12.553
 113 H   -6.828  -1.814  -7.629
 114 H   -4.321   1.814   8.609
 115 H    4.321  -4.961   7.629
 116 H    6.828   4.961  -8.609
 117 H    6.828   1.814   7.629
 118 H    4.321  -1.814  -8.609
 119 H   -4.321   4.961  -7.629
 120 H   -6.828  -4.961   8.609
 121 H    2.899  -1.943   1.238
 122 H    8.250   1.943 -14.999
 123 H   -8.250  -4.832  -1.238
 124 H   -2.899   4.832  14.999
 125 H   -2.899   1.943  -1.238
 126 H   -8.250  -1.943  14.999
 127 H    8.250   4.832   1.238
 128 H    2.899  -4.832 -14.999
 129 H    3.432  -5.110   0.372
 130 H    7.717   5.110 -15.866
 131 H   -7.717  -1.666  -0.372
 132 H   -3.432   1.666  15.866
 133 H   -3.432   5.110  -0.372
 134 H   -7.717  -5.110  15.866
 135 H    7.717   1.666   0.372
 136 H    3.432  -1.666 -15.866
 137 H    1.394  -4.395   2.915
 138 H    9.755   4.395 -13.322
 139 H   -9.755  -2.380  -2.915
 140 H   -1.394   2.380  13.322
 141 H   -1.394   4.395  -2.915
 142 H   -9.755  -4.395  13.322
 143 H    9.755   2.380   2.915
 144 H    1.394  -2.380 -13.322
 145 H   -0.811  -5.671 -11.421
 146 H  -10.337   5.671   4.817
 147 H   10.337  -1.105  11.421
 148 H    0.811   1.105  -4.817
 149 H    0.811   5.671  11.421
 150 H   10.337  -5.671  -4.817
 151 H  -10.337   1.105 -11.421
 152 H   -0.811  -1.105   4.817
 153 H    1.560  -5.842  -7.503
 154 H    9.588   5.842   8.734
 155 H   -9.588  -0.933   7.503
 156 H   -1.560   0.933  -8.734
 157 H   -1.560   5.842   7.503
 158 H   -9.588  -5.842  -8.734
 159 H    9.588   0.933  -7.503
 160 H    1.560  -0.933   8.734

 *******************************************************************************
 FINISHED BASIS SET HANDLING 
 *******************************************************************************

 INFORMATION **** SET_MPP **** PCRYSTAL CALCULATION
 INFORMATION **** READM2 **** NEW DEFAULT: FOCK/KS MATRIX MIXING SET TO 30 %
 INFORMATION **** READM2 **** NEW DEFAULT: FULL DIRECT SCF MODE
 INFORMATION **** READM2 **** NEW DEFAULT: COULOMB BIPOLAR BUFFER SET TO 32 Mb
 INFORMATION **** READM2 **** NEW DEFAULT: EXCHANGE BIPOLAR BUFFER SET TO 32 Mb

 *******************************************************************************
 NEW DEFAULT: DFT INTEGRATION GRID INCREASED TO XLGRID
 NEW DEFAULT: DIIS ACCELERATOR ACTIVE
 USE KEYWORD NODIIS TO TURN IT OFF
 *******************************************************************************

 INFORMATION **** RDDFTP **** PBEh-3c calculation
 INFORMATION **** RDDFTP **** PBEh hybrid functional combined with D3 and gCP

PLEASE CITE:
(1) PBEh-3c Reference
 S. Grimme, J. G. Brandenburg, C. Bannwarth, and A. Hansen, 
 J. Chem. Phys. 143, 054107 (2015)
(2) DFT-D3 Reference
 S. Grimme, J. Antony, S. Ehrlich, and H. Krieg, J. Chem. Phys. 132, 154104 (2010)
(3) gCP Reference
 H. Kruse and S. Grimme J. Chem. Phys, 136, 154101 (2012)
 J. G. Brandenburg, M. Alessio, B. Civalleri, M. F. Peintinger
 T. Bredow, and S. Grimme, J. Phys. Chem. A, 117, 9282 (2013) 

 WARNING **** RDDFTP **** PBEh-3c has to be combined with def2-mSVP basis set
 WARNING **** RDDFTP **** Note: Harmonic frequencies are scaled by 0.95
 WARNING **** RDDFTP **** as recommended in original publication
 INFORMATION **** TOLDEE **** SCF TOL ON TOTAL ENERGY SET TO           9
 INFORMATION **** TOLINTEG **** COULOMB AND EXCHANGE SERIES TOLERANCES MODIFIED
 INFORMATION **** MAXCYCLE **** MAX NUMBER OF SCF CYCLES SET TO          30
 WARNING **** READM2 **** PROBABLE LOSS IN FREQCALC ACCURACY; SCF TOL LT          10
 *******************************************************************************
 N. OF ATOMS PER CELL       160  COULOMB OVERLAP TOL         (T1) 10**   -8
 NUMBER OF SHELLS           760  COULOMB PENETRATION TOL     (T2) 10**   -8
 NUMBER OF AO              1464  EXCHANGE OVERLAP TOL        (T3) 10**   -8
 N. OF ELECTRONS PER CELL   640  EXCHANGE PSEUDO OVP (F(G))  (T4) 10**   -8
 CORE ELECTRONS PER CELL    176  EXCHANGE PSEUDO OVP (P(G))  (T5) 10**  -24
 N. OF SYMMETRY OPERATORS     8  POLE ORDER IN MONO ZONE                  4
 *******************************************************************************
 TYPE OF CALCULATION :  RESTRICTED CLOSED SHELL
 KOHN-SHAM HAMILTONIAN

 (EXCHANGE)[CORRELATION] FUNCTIONAL:(PBEh-3c)[PBEh-3c]


 HYBRID EXCHANGE - PERCENTAGE OF FOCK EXCHANGE    42.0000

 CAPPA:IS1  4;IS2  4;IS3  2; K PTS MONK NET  18; SYMMOPS:K SPACE   8;G SPACE   8

 *******************************************************************************
 MAX NUMBER OF SCF CYCLES      30  CONVERGENCE ON DELTAP        10**-19
 WEIGHT OF F(I) IN F(I+1)      50% CONVERGENCE ON ENERGY        10**- 9
 SHRINK. FACT.(MONKH.)    4  4  2  NUMBER OF K POINTS IN THE IBZ     18
 SHRINKING FACTOR(GILAT NET)    4  NUMBER OF K POINTS(GILAT NET)     18
 *******************************************************************************
 *** K POINTS COORDINATES (OBLIQUE COORDINATES IN UNITS OF IS =  4)
   1-R(  0  0  0)   2-C(  1  0  0)   3-R(  2  0  0)   4-C(  0  1  0)
   5-C(  1  1  0)   6-C(  2  1  0)   7-R(  0  2  0)   8-C(  1  2  0)
   9-R(  2  2  0)  10-R(  0  0  1)  11-C(  1  0  1)  12-R(  2  0  1)
  13-C(  0  1  1)  14-C(  1  1  1)  15-C(  2  1  1)  16-R(  0  2  1)
  17-C(  1  2  1)  18-R(  2  2  1)

 DIRECT LATTICE VECTORS COMPON. (A.U.)     RECIP. LATTICE VECTORS COMPON. (A.U.) 
        X            Y            Z              X            Y            Z
   22.2972301    0.0000000    0.0000000      0.2817922    0.0000000    0.0000000
    0.0000000   13.5511012    0.0000000      0.0000000    0.4636660    0.0000000
    0.0000000    0.0000000   32.4749484      0.0000000    0.0000000    0.1934779

 DISK SPACE FOR EIGENVECTORS (FTN 10)    60012288 REALS

 SYMMETRY ADAPTION OF THE BLOCH FUNCTIONS ENABLED
 TTTTTTTTTTTTTTTTTTTTTTTTTTTTTT gordsh1     TELAPSE        4.27 TCPU        1.91

 MATRIX SIZE: P(G) 4737600, F(G)  445432, P(G) IRR  300674, F(G) IRR   56420
 MAX G-VECTOR INDEX FOR 1- AND 2-ELECTRON INTEGRALS  87

 TTTTTTTTTTTTTTTTTTTTTTTTTTTTTT INPUT       TELAPSE        4.38 TCPU        2.01

 NEIGHBORS OF THE NON-EQUIVALENT ATOMS

 N = NUMBER OF NEIGHBORS AT DISTANCE R
    ATOM  N     R/ANG      R/AU   NEIGHBORS (ATOM LABELS AND CELL INDICES)
   1 O    1     0.9818     1.8553   89 H    0 0 0
   1 O    1     1.3489     2.5490   25 C    0 0 0
   1 O    1     2.0236     3.8241  102 H    0 0 0
   1 O    1     2.3660     4.4712   49 C    0 0 0
   1 O    1     2.3952     4.5262   65 C    0 0 0
   1 O    1     2.6052     4.9231  113 H    0 0 0

   9 O    1     1.2315     2.3273   73 C    0 0 0
   9 O    1     1.7247     3.2591   96 H    0 0 0
   9 O    1     2.2640     4.2784   17 N    0 0 0
   9 O    1     2.3380     4.4183  105 H    0 0 0
   9 O    1     2.4032     4.5413   57 C    0 0 0
   9 O    1     2.5978     4.9091  137 H    0 0 0

  17 N    1     1.0156     1.9191   97 H    0 0 0
  17 N    1     1.3418     2.5357   73 C    0 0 0
  17 N    1     1.4077     2.6601   33 C    0 0 0
  17 N    1     2.2640     4.2784    9 O    0 0 0
  17 N    1     2.3802     4.4979   81 C    0 0 0
  17 N    1     2.3949     4.5256   57 C    0 0 0

  25 C    1     1.3489     2.5490    1 O    0 0 0
  25 C    1     1.3901     2.6270   49 C    0 0 0
  25 C    1     1.3913     2.6292   65 C    0 0 0
  25 C    1     1.9247     3.6371   89 H    0 0 0
  25 C    1     2.1461     4.0556  113 H    0 0 0
  25 C    1     2.1513     4.0653  145 H    0 0 0

  33 C    1     1.3925     2.6315   81 C    0 0 0
  33 C    1     1.3928     2.6321   41 C    0 0 0
  33 C    1     1.4077     2.6601   17 N    0 0 0
  33 C    1     2.0466     3.8676   97 H    0 0 0
  33 C    1     2.1532     4.0690  153 H    0 0 0
  33 C    1     2.1555     4.0734  105 H    0 0 0

  41 C    1     1.0771     2.0353  105 H    0 0 0
  41 C    1     1.3877     2.6223   49 C    0 0 0
  41 C    1     1.3928     2.6321   33 C    0 0 0
  41 C    1     2.1358     4.0360  113 H    0 0 0
  41 C    1     2.3930     4.5220   81 C    0 0 0
  41 C    1     2.4160     4.5657   25 C    0 0 0

  49 C    1     1.0823     2.0453  113 H    0 0 0
  49 C    1     1.3877     2.6223   41 C    0 0 0
  49 C    1     1.3901     2.6270   25 C    0 0 0
  49 C    1     2.1246     4.0149  105 H    0 0 0
  49 C    1     2.3660     4.4712    1 O    0 0 0
  49 C    1     2.3921     4.5203   65 C    0 0 0

  57 C    1     1.0869     2.0539  137 H    0 0 0
  57 C    1     1.0879     2.0558  129 H    0 0 0
  57 C    1     1.0913     2.0623  121 H    0 0 0
  57 C    1     1.5060     2.8459   73 C    0 0 0
  57 C    1     2.3949     4.5256   17 N    0 0 0
  57 C    1     2.4032     4.5413    9 O    0 0 0

  65 C    1     1.0810     2.0428  145 H    0 0 0
  65 C    1     1.3812     2.6100   81 C    0 0 0
  65 C    1     1.3913     2.6292   25 C    0 0 0
  65 C    1     2.1245     4.0146  153 H    0 0 0
  65 C    1     2.3921     4.5203   49 C    0 0 0
  65 C    1     2.3952     4.5262    1 O    0 0 0

  73 C    1     1.2315     2.3273    9 O    0 0 0
  73 C    1     1.3418     2.5357   17 N    0 0 0
  73 C    1     1.5060     2.8459   57 C    0 0 0
  73 C    1     2.0051     3.7891   97 H    0 0 0
  73 C    1     2.1340     4.0326  121 H    0 0 0
  73 C    1     2.1417     4.0473  137 H    0 0 0

  81 C    1     1.0833     2.0472  153 H    0 0 0
  81 C    1     1.3812     2.6100   65 C    0 0 0
  81 C    1     1.3925     2.6315   33 C    0 0 0
  81 C    1     2.1278     4.0209  145 H    0 0 0
  81 C    1     2.3802     4.4979   17 N    0 0 0
  81 C    1     2.3930     4.5220   41 C    0 0 0

  89 H    1     0.9818     1.8553    1 O    0 0 0
  89 H    1     1.7247     3.2591   16 O    0 0 0
  89 H    1     1.9247     3.6371   25 C    0 0 0
  89 H    1     2.3290     4.4011  145 H    0 0 0
  89 H    1     2.4624     4.6534   65 C    0 0 0
  89 H    1     2.5943     4.9026  102 H    0 0 0

  97 H    1     1.0156     1.9191   17 N    0 0 0
  97 H    1     2.0051     3.7891   73 C    0 0 0
  97 H    1     2.0236     3.8241    6 O    0 0 0
  97 H    1     2.0466     3.8676   33 C    0 0 0
  97 H    1     2.2287     4.2115  129 H    0 0 0
  97 H    1     2.2803     4.3092  153 H    0 0 0

 105 H    1     1.0771     2.0353   41 C    0 0 0
 105 H    1     2.1246     4.0149   49 C    0 0 0
 105 H    1     2.1555     4.0734   33 C    0 0 0
 105 H    1     2.3380     4.4183    9 O    0 0 0
 105 H    1     2.4299     4.5918  113 H    0 0 0
 105 H    1     2.4558     4.6408  131 H    0 0 0

 113 H    1     1.0823     2.0453   49 C    0 0 0
 113 H    1     2.1358     4.0360   41 C    0 0 0
 113 H    1     2.1461     4.0556   25 C    0 0 0
 113 H    1     2.4299     4.5918  105 H    0 0 0
 113 H    1     2.6052     4.9231    1 O    0 0 0
 113 H    1     2.6497     5.0071  158 H    0 0 0

 121 H    1     1.0913     2.0623   57 C    0 0 0
 121 H    1     1.7601     3.3261  129 H    0 0 0
 121 H    1     1.7622     3.3301  137 H    0 0 0
 121 H    1     2.1340     4.0326   73 C    0 0 0
 121 H    1     2.6045     4.9218  109 H    0 0 0
 121 H    1     2.7565     5.2091   13 O    0 0 0

 129 H    1     1.0879     2.0558   57 C    0 0 0
 129 H    1     1.7601     3.3261  121 H    0 0 0
 129 H    1     1.7658     3.3369  137 H    0 0 0
 129 H    1     2.1703     4.1013   73 C    0 0 0
 129 H    1     2.2287     4.2115   97 H    0 0 0
 129 H    1     2.4558     4.6408  107 H    0 0 0

 137 H    1     1.0869     2.0539   57 C    0 0 0
 137 H    1     1.7622     3.3301  121 H    0 0 0
 137 H    1     1.7658     3.3369  129 H    0 0 0
 137 H    1     2.1417     4.0473   73 C    0 0 0
 137 H    1     2.3250     4.3936  152 H    0 0 0
[...]
Note: The following floating-point exceptions are signalling: IEEE_UNDERFLOW_FLAG IEEE_DENORMAL
Note: The following floating-point exceptions are signalling: IEEE_UNDERFLOW_FLAG IEEE_DENORMAL
Note: The following floating-point exceptions are signalling: IEEE_UNDERFLOW_FLAG IEEE_DENORMAL
Note: The following floating-point exceptions are signalling: IEEE_UNDERFLOW_FLAG IEEE_DENORMAL
Note: The following floating-point exceptions are signalling: IEEE_UNDERFLOW_FLAG IEEE_DENORMAL
Note: The following floating-point exceptions are signalling: IEEE_UNDERFLOW_FLAG IEEE_DENORMAL
Note: The following floating-point exceptions are signalling: IEEE_UNDERFLOW_FLAG IEEE_DENORMAL
Note: The following floating-point exceptions are signalling: IEEE_UNDERFLOW_FLAG IEEE_DENORMAL
Note: The following floating-point exceptions are signalling: IEEE_UNDERFLOW_FLAG IEEE_DENORMAL
Note: The following floating-point exceptions are signalling: IEEE_UNDERFLOW_FLAG IEEE_DENORMAL
Note: The following floating-point exceptions are signalling: IEEE_UNDERFLOW_FLAG IEEE_DENORMAL
Note: The following floating-point exceptions are signalling: IEEE_UNDERFLOW_FLAG IEEE_DENORMAL
Note: The following floating-point exceptions are signalling: IEEE_UNDERFLOW_FLAG IEEE_DENORMAL
Note: The following floating-point exceptions are signalling: IEEE_UNDERFLOW_FLAG IEEE_DENORMAL
Note: The following floating-point exceptions are signalling: IEEE_UNDERFLOW_FLAG IEEE_DENORMAL
Note: The following floating-point exceptions are signalling: IEEE_UNDERFLOW_FLAG IEEE_DENORMAL
Note: The following floating-point exceptions are signalling: IEEE_UNDERFLOW_FLAG IEEE_DENORMAL
Note: The following floating-point exceptions are signalling: IEEE_UNDERFLOW_FLAG IEEE_DENORMAL
Note: The following floating-point exceptions are signalling: IEEE_UNDERFLOW_FLAG IEEE_DENORMAL
Note: The following floating-point exceptions are signalling: IEEE_UNDERFLOW_FLAG IEEE_DENORMAL
Note: The following floating-point exceptions are signalling: IEEE_UNDERFLOW_FLAG IEEE_DENORMAL
Note: The following floating-point exceptions are signalling: IEEE_UNDERFLOW_FLAG IEEE_DENORMAL
Note: The following floating-point exceptions are signalling: IEEE_UNDERFLOW_FLAG IEEE_DENORMAL
Note: The following floating-point exceptions are signalling: IEEE_UNDERFLOW_FLAG IEEE_DENORMAL
Note: The following floating-point exceptions are signalling: IEEE_UNDERFLOW_FLAG IEEE_DENORMAL
Note: The following floating-point exceptions are signalling: IEEE_UNDERFLOW_FLAG IEEE_DENORMAL
Note: The following floating-point exceptions are signalling: IEEE_UNDERFLOW_FLAG IEEE_DENORMAL
Note: The following floating-point exceptions are signalling: IEEE_UNDERFLOW_FLAG IEEE_DENORMAL
Note: The following floating-point exceptions are signalling: IEEE_UNDERFLOW_FLAG IEEE_DENORMAL
Note: The following floating-point exceptions are signalling: IEEE_UNDERFLOW_FLAG IEEE_DENORMAL
Note: The following floating-point exceptions are signalling: IEEE_UNDERFLOW_FLAG IEEE_DENORMAL
Note: The following floating-point exceptions are signalling: IEEE_UNDERFLOW_FLAG IEEE_DENORMAL
Note: The following floating-point exceptions are signalling: IEEE_UNDERFLOW_FLAG IEEE_DENORMAL
Note: The following floating-point exceptions are signalling: IEEE_UNDERFLOW_FLAG IEEE_DENORMAL
Note: The following floating-point exceptions are signalling: IEEE_UNDERFLOW_FLAG IEEE_DENORMAL
Note: The following floating-point exceptions are signalling: IEEE_UNDERFLOW_FLAG IEEE_DENORMAL
Note: The following floating-point exceptions are signalling: IEEE_UNDERFLOW_FLAG IEEE_DENORMAL
Note: The following floating-point exceptions are signalling: IEEE_UNDERFLOW_FLAG IEEE_DENORMAL
Note: The following floating-point exceptions are signalling: IEEE_UNDERFLOW_FLAG IEEE_DENORMAL
Note: The following floating-point exceptions are signalling: IEEE_UNDERFLOW_FLAG IEEE_DENORMAL
Note: The following floating-point exceptions are signalling: IEEE_UNDERFLOW_FLAG IEEE_DENORMAL
Note: The following floating-point exceptions are signalling: IEEE_UNDERFLOW_FLAG IEEE_DENORMAL
Note: The following floating-point exceptions are signalling: IEEE_UNDERFLOW_FLAG IEEE_DENORMAL
Note: The following floating-point exceptions are signalling: IEEE_UNDERFLOW_FLAG IEEE_DENORMAL
Note: The following floating-point exceptions are signalling: IEEE_UNDERFLOW_FLAG IEEE_DENORMAL
Note: The following floating-point exceptions are signalling: IEEE_UNDERFLOW_FLAG IEEE_DENORMAL
Note: The following floating-point exceptions are signalling: IEEE_UNDERFLOW_FLAG IEEE_DENORMAL
Note: The following floating-point exceptions are signalling: IEEE_UNDERFLOW_FLAG IEEE_DENORMAL
Note: The following floating-point exceptions are signalling: IEEE_UNDERFLOW_FLAG IEEE_DENORMAL
Note: The following floating-point exceptions are signalling: IEEE_UNDERFLOW_FLAG IEEE_DENORMAL
Note: The following floating-point exceptions are signalling: IEEE_UNDERFLOW_FLAG IEEE_DENORMAL
Note: The following floating-point exceptions are signalling: IEEE_UNDERFLOW_FLAG IEEE_DENORMAL
Note: The following floating-point exceptions are signalling: IEEE_UNDERFLOW_FLAG IEEE_DENORMAL
Note: The following floating-point exceptions are signalling: IEEE_UNDERFLOW_FLAG IEEE_DENORMAL
Note: The following floating-point exceptions are signalling: IEEE_UNDERFLOW_FLAG IEEE_DENORMAL
Note: The following floating-point exceptions are signalling: IEEE_UNDERFLOW_FLAG IEEE_DENORMAL
Note: The following floating-point exceptions are signalling: IEEE_UNDERFLOW_FLAG IEEE_DENORMAL
Note: The following floating-point exceptions are signalling: IEEE_UNDERFLOW_FLAG IEEE_DENORMAL
Note: The following floating-point exceptions are signalling: IEEE_UNDERFLOW_FLAG IEEE_DENORMAL
Note: The following floating-point exceptions are signalling: IEEE_UNDERFLOW_FLAG IEEE_DENORMAL
Note: The following floating-point exceptions are signalling: IEEE_UNDERFLOW_FLAG IEEE_DENORMAL
Note: The following floating-point exceptions are signalling: IEEE_UNDERFLOW_FLAG IEEE_DENORMAL
Note: The following floating-point exceptions are signalling: IEEE_UNDERFLOW_FLAG IEEE_DENORMAL
Note: The following floating-point exceptions are signalling: IEEE_UNDERFLOW_FLAG IEEE_DENORMAL
Note: The following floating-point exceptions are signalling: IEEE_UNDERFLOW_FLAG IEEE_DENORMAL
Note: The following floating-point exceptions are signalling: IEEE_UNDERFLOW_FLAG IEEE_DENORMAL
Note: The following floating-point exceptions are signalling: IEEE_UNDERFLOW_FLAG IEEE_DENORMAL
Note: The following floating-point exceptions are signalling: IEEE_UNDERFLOW_FLAG IEEE_DENORMAL
Note: The following floating-point exceptions are signalling: IEEE_UNDERFLOW_FLAG IEEE_DENORMAL
Note: The following floating-point exceptions are signalling: IEEE_UNDERFLOW_FLAG IEEE_DENORMAL
Note: The following floating-point exceptions are signalling: IEEE_UNDERFLOW_FLAG IEEE_DENORMAL
Note: The following floating-point exceptions are signalling: IEEE_UNDERFLOW_FLAG IEEE_DENORMAL
Note: The following floating-point exceptions are signalling: IEEE_UNDERFLOW_FLAG IEEE_DENORMAL
Note: The following floating-point exceptions are signalling: IEEE_UNDERFLOW_FLAG IEEE_DENORMAL
Note: The following floating-point exceptions are signalling: IEEE_UNDERFLOW_FLAG IEEE_DENORMAL
Note: The following floating-point exceptions are signalling: IEEE_UNDERFLOW_FLAG IEEE_DENORMAL
Note: The following floating-point exceptions are signalling: IEEE_UNDERFLOW_FLAG IEEE_DENORMAL
Note: The following floating-point exceptions are signalling: IEEE_UNDERFLOW_FLAG IEEE_DENORMAL
Note: The following floating-point exceptions are signalling: IEEE_UNDERFLOW_FLAG IEEE_DENORMAL
Note: The following floating-point exceptions are signalling: IEEE_UNDERFLOW_FLAG IEEE_DENORMAL
Note: The following floating-point exceptions are signalling: IEEE_UNDERFLOW_FLAG IEEE_DENORMAL
Note: The following floating-point exceptions are signalling: IEEE_UNDERFLOW_FLAG IEEE_DENORMAL
Note: The following floating-point exceptions are signalling: IEEE_UNDERFLOW_FLAG IEEE_DENORMAL
Note: The following floating-point exceptions are signalling: IEEE_UNDERFLOW_FLAG IEEE_DENORMAL
Note: The following floating-point exceptions are signalling: IEEE_UNDERFLOW_FLAG IEEE_DENORMAL
Note: The following floating-point exceptions are signalling: IEEE_UNDERFLOW_FLAG IEEE_DENORMAL
Note: The following floating-point exceptions are signalling: IEEE_UNDERFLOW_FLAG IEEE_DENORMAL
Note: The following floating-point exceptions are signalling: IEEE_UNDERFLOW_FLAG IEEE_DENORMAL
Note: The following floating-point exceptions are signalling: IEEE_UNDERFLOW_FLAG IEEE_DENORMAL
Note: The following floating-point exceptions are signalling: IEEE_UNDERFLOW_FLAG IEEE_DENORMAL
Note: The following floating-point exceptions are signalling: IEEE_UNDERFLOW_FLAG IEEE_DENORMAL
Note: The following floating-point exceptions are signalling: IEEE_UNDERFLOW_FLAG IEEE_DENORMAL
Note: The following floating-point exceptions are signalling: IEEE_UNDERFLOW_FLAG IEEE_DENORMAL
Note: The following floating-point exceptions are signalling: IEEE_UNDERFLOW_FLAG IEEE_DENORMAL
Note: The following floating-point exceptions are signalling: IEEE_UNDERFLOW_FLAG IEEE_DENORMAL
Note: The following floating-point exceptions are signalling: IEEE_UNDERFLOW_FLAG IEEE_DENORMAL
Note: The following floating-point exceptions are signalling: IEEE_UNDERFLOW_FLAG IEEE_DENORMAL
Note: The following floating-point exceptions are signalling: IEEE_UNDERFLOW_FLAG IEEE_DENORMAL
Note: The following floating-point exceptions are signalling: IEEE_UNDERFLOW_FLAG IEEE_DENORMAL
Note: The following floating-point exceptions are signalling: IEEE_UNDERFLOW_FLAG IEEE_DENORMAL
Note: The following floating-point exceptions are signalling: IEEE_UNDERFLOW_FLAG IEEE_DENORMAL
Note: The following floating-point exceptions are signalling: IEEE_UNDERFLOW_FLAG IEEE_DENORMAL
Note: The following floating-point exceptions are signalling: IEEE_UNDERFLOW_FLAG IEEE_DENORMAL
Note: The following floating-point exceptions are signalling: IEEE_UNDERFLOW_FLAG IEEE_DENORMAL
Note: The following floating-point exceptions are signalling: IEEE_UNDERFLOW_FLAG IEEE_DENORMAL
Note: The following floating-point exceptions are signalling: IEEE_UNDERFLOW_FLAG IEEE_DENORMAL
Note: The following floating-point exceptions are signalling: IEEE_UNDERFLOW_FLAG IEEE_DENORMAL
Note: The following floating-point exceptions are signalling: IEEE_UNDERFLOW_FLAG IEEE_DENORMAL
Note: The following floating-point exceptions are signalling: IEEE_UNDERFLOW_FLAG IEEE_DENORMAL
Note: The following floating-point exceptions are signalling: IEEE_UNDERFLOW_FLAG IEEE_DENORMAL
Note: The following floating-point exceptions are signalling: IEEE_UNDERFLOW_FLAG IEEE_DENORMAL
Note: The following floating-point exceptions are signalling: IEEE_UNDERFLOW_FLAG IEEE_DENORMAL
Note: The following floating-point exceptions are signalling: IEEE_UNDERFLOW_FLAG IEEE_DENORMAL
Note: The following floating-point exceptions are signalling: IEEE_UNDERFLOW_FLAG IEEE_DENORMAL
Note: The following floating-point exceptions are signalling: IEEE_UNDERFLOW_FLAG IEEE_DENORMAL
Note: The following floating-point exceptions are signalling: IEEE_UNDERFLOW_FLAG IEEE_DENORMAL
Note: The following floating-point exceptions are signalling: IEEE_UNDERFLOW_FLAG IEEE_DENORMAL
Note: The following floating-point exceptions are signalling: IEEE_UNDERFLOW_FLAG IEEE_DENORMAL
Note: The following floating-point exceptions are signalling: IEEE_UNDERFLOW_FLAG IEEE_DENORMAL
Note: The following floating-point exceptions are signalling: IEEE_UNDERFLOW_FLAG IEEE_DENORMAL
Note: The following floating-point exceptions are signalling: IEEE_UNDERFLOW_FLAG IEEE_DENORMAL
Note: The following floating-point exceptions are signalling: IEEE_UNDERFLOW_FLAG IEEE_DENORMAL
Note: The following floating-point exceptions are signalling: IEEE_UNDERFLOW_FLAG IEEE_DENORMAL
Note: The following floating-point exceptions are signalling: IEEE_UNDERFLOW_FLAG IEEE_DENORMAL
Note: The following floating-point exceptions are signalling: IEEE_UNDERFLOW_FLAG IEEE_DENORMAL
Note: The following floating-point exceptions are signalling: IEEE_UNDERFLOW_FLAG IEEE_DENORMAL
Note: The following floating-point exceptions are signalling: IEEE_UNDERFLOW_FLAG IEEE_DENORMAL
Note: The following floating-point exceptions are signalling: IEEE_UNDERFLOW_FLAG IEEE_DENORMAL
Note: The following floating-point exceptions are signalling: IEEE_UNDERFLOW_FLAG IEEE_DENORMAL
Note: The following floating-point exceptions are signalling: IEEE_UNDERFLOW_FLAG IEEE_DENORMAL
Note: The following floating-point exceptions are signalling: IEEE_UNDERFLOW_FLAG IEEE_DENORMAL
Note: The following floating-point exceptions are signalling: IEEE_UNDERFLOW_FLAG IEEE_DENORMAL
Note: The following floating-point exceptions are signalling: IEEE_UNDERFLOW_FLAG IEEE_DENORMAL
Note: The following floating-point exceptions are signalling: IEEE_UNDERFLOW_FLAG IEEE_DENORMAL
Note: The following floating-point exceptions are signalling: IEEE_UNDERFLOW_FLAG IEEE_DENORMAL
Note: The following floating-point exceptions are signalling: IEEE_UNDERFLOW_FLAG IEEE_DENORMAL
Note: The following floating-point exceptions are signalling: IEEE_UNDERFLOW_FLAG IEEE_DENORMAL
Note: The following floating-point exceptions are signalling: IEEE_UNDERFLOW_FLAG IEEE_DENORMAL
Note: The following floating-point exceptions are signalling: IEEE_UNDERFLOW_FLAG IEEE_DENORMAL
Note: The following floating-point exceptions are signalling: IEEE_UNDERFLOW_FLAG IEEE_DENORMAL
Note: The following floating-point exceptions are signalling: IEEE_UNDERFLOW_FLAG IEEE_DENORMAL
Note: The following floating-point exceptions are signalling: IEEE_UNDERFLOW_FLAG IEEE_DENORMAL
Note: The following floating-point exceptions are signalling: IEEE_UNDERFLOW_FLAG IEEE_DENORMAL
Note: The following floating-point exceptions are signalling: IEEE_UNDERFLOW_FLAG IEEE_DENORMAL
Note: The following floating-point exceptions are signalling: IEEE_UNDERFLOW_FLAG IEEE_DENORMAL
Note: The following floating-point exceptions are signalling: IEEE_UNDERFLOW_FLAG IEEE_DENORMAL
Note: The following floating-point exceptions are signalling: IEEE_UNDERFLOW_FLAG IEEE_DENORMAL
Note: The following floating-point exceptions are signalling: IEEE_UNDERFLOW_FLAG IEEE_DENORMAL
Note: The following floating-point exceptions are signalling: IEEE_UNDERFLOW_FLAG IEEE_DENORMAL
Note: The following floating-point exceptions are signalling: IEEE_UNDERFLOW_FLAG IEEE_DENORMAL
Note: The following floating-point exceptions are signalling: IEEE_UNDERFLOW_FLAG IEEE_DENORMAL
Note: The following floating-point exceptions are signalling: IEEE_UNDERFLOW_FLAG IEEE_DENORMAL
Note: The following floating-point exceptions are signalling: IEEE_UNDERFLOW_FLAG IEEE_DENORMAL
Note: The following floating-point exceptions are signalling: IEEE_UNDERFLOW_FLAG IEEE_DENORMAL
Note: The following floating-point exceptions are signalling: IEEE_UNDERFLOW_FLAG IEEE_DENORMAL
Note: The following floating-point exceptions are signalling: IEEE_UNDERFLOW_FLAG IEEE_DENORMAL
Note: The following floating-point exceptions are signalling: IEEE_UNDERFLOW_FLAG IEEE_DENORMAL
Note: The following floating-point exceptions are signalling: IEEE_UNDERFLOW_FLAG IEEE_DENORMAL
Note: The following floating-point exceptions are signalling: IEEE_UNDERFLOW_FLAG IEEE_DENORMAL
Note: The following floating-point exceptions are signalling: IEEE_UNDERFLOW_FLAG IEEE_DENORMAL
Note: The following floating-point exceptions are signalling: IEEE_UNDERFLOW_FLAG IEEE_DENORMAL
Note: The following floating-point exceptions are signalling: IEEE_UNDERFLOW_FLAG IEEE_DENORMAL
Note: The following floating-point exceptions are signalling: IEEE_UNDERFLOW_FLAG IEEE_DENORMAL
Note: The following floating-point exceptions are signalling: IEEE_UNDERFLOW_FLAG IEEE_DENORMAL
Note: The following floating-point exceptions are signalling: IEEE_UNDERFLOW_FLAG IEEE_DENORMAL
Note: The following floating-point exceptions are signalling: IEEE_UNDERFLOW_FLAG IEEE_DENORMAL
Note: The following floating-point exceptions are signalling: IEEE_UNDERFLOW_FLAG IEEE_DENORMAL
Note: The following floating-point exceptions are signalling: IEEE_UNDERFLOW_FLAG IEEE_DENORMAL
Note: The following floating-point exceptions are signalling: IEEE_UNDERFLOW_FLAG IEEE_DENORMAL
Note: The following floating-point exceptions are signalling: IEEE_UNDERFLOW_FLAG IEEE_DENORMAL
Note: The following floating-point exceptions are signalling: IEEE_UNDERFLOW_FLAG IEEE_DENORMAL
Note: The following floating-point exceptions are signalling: IEEE_UNDERFLOW_FLAG IEEE_DENORMAL
Note: The following floating-point exceptions are signalling: IEEE_UNDERFLOW_FLAG IEEE_DENORMAL
Note: The following floating-point exceptions are signalling: IEEE_UNDERFLOW_FLAG IEEE_DENORMAL
Note: The following floating-point exceptions are signalling: IEEE_UNDERFLOW_FLAG IEEE_DENORMAL
Note: The following floating-point exceptions are signalling: IEEE_UNDERFLOW_FLAG IEEE_DENORMAL
Note: The following floating-point exceptions are signalling: IEEE_UNDERFLOW_FLAG IEEE_DENORMAL
Note: The following floating-point exceptions are signalling: IEEE_UNDERFLOW_FLAG IEEE_DENORMAL
Note: The following floating-point exceptions are signalling: IEEE_UNDERFLOW_FLAG IEEE_DENORMAL
Note: The following floating-point exceptions are signalling: IEEE_UNDERFLOW_FLAG IEEE_DENORMAL
Note: The following floating-point exceptions are signalling: IEEE_UNDERFLOW_FLAG IEEE_DENORMAL
Note: The following floating-point exceptions are signalling: IEEE_UNDERFLOW_FLAG IEEE_DENORMAL
Note: The following floating-point exceptions are signalling: IEEE_UNDERFLOW_FLAG IEEE_DENORMAL
Note: The following floating-point exceptions are signalling: IEEE_UNDERFLOW_FLAG IEEE_DENORMAL
Note: The following floating-point exceptions are signalling: IEEE_UNDERFLOW_FLAG IEEE_DENORMAL
Note: The following floating-point exceptions are signalling: IEEE_UNDERFLOW_FLAG IEEE_DENORMAL
Note: The following floating-point exceptions are signalling: IEEE_UNDERFLOW_FLAG IEEE_DENORMAL
Note: The following floating-point exceptions are signalling: IEEE_UNDERFLOW_FLAG IEEE_DENORMAL
Note: The following floating-point exceptions are signalling: IEEE_UNDERFLOW_FLAG IEEE_DENORMAL
Note: The following floating-point exceptions are signalling: IEEE_UNDERFLOW_FLAG IEEE_DENORMAL
Note: The following floating-point exceptions are signalling: IEEE_UNDERFLOW_FLAG IEEE_DENORMAL
Note: The following floating-point exceptions are signalling: IEEE_UNDERFLOW_FLAG IEEE_DENORMAL
Note: The following floating-point exceptions are signalling: IEEE_UNDERFLOW_FLAG IEEE_DENORMAL
Note: The following floating-point exceptions are signalling: IEEE_UNDERFLOW_FLAG IEEE_DENORMAL
Note: The following floating-point exceptions are signalling: IEEE_UNDERFLOW_FLAG IEEE_DENORMAL
Note: The following floating-point exceptions are signalling: IEEE_UNDERFLOW_FLAG IEEE_DENORMAL
Note: The following floating-point exceptions are signalling: IEEE_UNDERFLOW_FLAG IEEE_DENORMAL
Note: The following floating-point exceptions are signalling: IEEE_UNDERFLOW_FLAG IEEE_DENORMAL
Note: The following floating-point exceptions are signalling: IEEE_UNDERFLOW_FLAG IEEE_DENORMAL
Note: The following floating-point exceptions are signalling: IEEE_UNDERFLOW_FLAG IEEE_DENORMAL
Note: The following floating-point exceptions are signalling: IEEE_UNDERFLOW_FLAG IEEE_DENORMAL
Note: The following floating-point exceptions are signalling: IEEE_UNDERFLOW_FLAG IEEE_DENORMAL
Note: The following floating-point exceptions are signalling: IEEE_UNDERFLOW_FLAG IEEE_DENORMAL
Note: The following floating-point exceptions are signalling: IEEE_UNDERFLOW_FLAG IEEE_DENORMAL
Note: The following floating-point exceptions are signalling: IEEE_UNDERFLOW_FLAG IEEE_DENORMAL
Note: The following floating-point exceptions are signalling: IEEE_UNDERFLOW_FLAG IEEE_DENORMAL
Note: The following floating-point exceptions are signalling: IEEE_UNDERFLOW_FLAG IEEE_DENORMAL
Note: The following floating-point exceptions are signalling: IEEE_UNDERFLOW_FLAG IEEE_DENORMAL
